                         Program Version 6.0.1  -  RELEASE   -
|  1> ! B3LYP def2-SVP OPT TightSCF D3BJ
|  2>
|  3>
|  4> %maxcore 2000
|  5>
|  6> %pal
|  7> nprocs 20
|  8> end
|  9>
| 10> * xyz 0 1
| 11> O         -2.27348        7.87686       -0.00014
| 12> O         -2.27346        5.71038       -0.00041
| 13> N         -2.84417        6.79360       -0.00015
| 14> N         -8.46908        6.79363        0.00129
| 15> C         -4.30401        6.79362        0.00010
| 16> C         -7.10492        6.79362        0.00045
| 17> C         -4.99421        8.00982        0.00035
| 18> C         -4.99421        5.57742        0.00001
| 19> C         -6.38039        8.00998        0.00051
| 20> C         -6.38039        5.57726        0.00018
| 21> H         -4.42543        8.93920        0.00036
| 22> H         -4.42542        4.64804       -0.00022
| 23> H         -6.92362        8.95844        0.00074
| 24> H         -6.92363        4.62881        0.00014
| 25> H         -8.98867        7.65909       -0.00303
| 26> H         -8.98868        5.92818       -0.00326
| 27> O         -8.67638        6.68503        1.47785
| 28> H         -7.72412        6.52408        1.43103
| 29> H         -9.00861        6.26965        0.67045
| 30> *
| 31>
| 32>                          ****END OF INPUT****
 Total Charge           Charge          ....    0
 Multiplicity           Mult            ....    1
 Number of Electrons    NEL             ....   82
Dispersion correction           -0.035106380
FINAL SINGLE POINT ENERGY      -567.312721618658
Dispersion correction             ... done (  0.0 sec)
Dispersion correction           -0.035049799
FINAL SINGLE POINT ENERGY      -567.444779539546
Dispersion correction             ... done (  0.0 sec)
Dispersion correction           -0.034856528
FINAL SINGLE POINT ENERGY      -567.545452817513
Dispersion correction             ... done (  0.0 sec)
FINAL SINGLE POINT ENERGY      -567.651166408121
FINAL SINGLE POINT ENERGY      -567.736840251265
FINAL SINGLE POINT ENERGY      -567.787160741627
FINAL SINGLE POINT ENERGY      -567.810667938275
FINAL SINGLE POINT ENERGY      -567.821979590713
FINAL SINGLE POINT ENERGY      -567.832485585031
FINAL SINGLE POINT ENERGY      -567.838067948202
FINAL SINGLE POINT ENERGY      -567.849475907402
FINAL SINGLE POINT ENERGY      -567.849494135151
FINAL SINGLE POINT ENERGY      -567.849522748762
FINAL SINGLE POINT ENERGY      -567.849570929227
FINAL SINGLE POINT ENERGY      -567.849629990738
FINAL SINGLE POINT ENERGY      -567.849691010053
FINAL SINGLE POINT ENERGY      -567.849713411418
Dispersion correction             ... done (  0.0 sec)
Dispersion correction           -0.033015390
FINAL SINGLE POINT ENERGY      -567.849716987525
Dispersion correction             ... done (  0.0 sec)
Dispersion correction           -0.033014381
FINAL SINGLE POINT ENERGY      -567.849719104951
Dispersion correction             ... done (  0.0 sec)
                    ***********************HURRAY********************

CARTESIAN COORDINATES (ANGSTROEM)
---------------------------------
  O     -2.397384    7.887679    0.560087
  O     -2.195727    5.825582   -0.072020
  N     -2.858531    6.822174    0.177542
  N     -8.457540    6.477741   -0.439943
  C     -4.312329    6.732871    0.005716
  C     -7.074245    6.566704   -0.331423
  C     -5.106928    7.846362    0.292412
  C     -4.876301    5.535303   -0.436699
  C     -6.482750    7.762087    0.129620
  C     -6.253573    5.455038   -0.604388
  H     -4.630661    8.759798    0.647384
  H     -4.224534    4.688267   -0.648225
  H     -7.121446    8.604756    0.400012
  H     -6.704526    4.523642   -0.956439
  H     -8.940119    7.327853   -0.716297
  H     -8.821463    5.650663   -0.902898
  O     -8.813587    7.494327    2.316417
  H     -7.971225    7.196876    2.684972
  H     -8.860011    7.018989    1.470416

 Multiplicity           Mult            ....    1
 Number of Electrons    NEL             ....   82
 Basis Dimension        Dim             ....  194

ORBITAL ENERGIES
----------------

  NO   OCC          E(Eh)            E(eV)
   0   2.0000     -19.153568      -521.1951
   1   2.0000     -19.153510      -521.1935
   2   2.0000     -19.107795      -519.9495
   3   2.0000     -14.551947      -395.9786
   4   2.0000     -14.377244      -391.2247
   5   2.0000     -10.265192      -279.3301
   6   2.0000     -10.241745      -278.6921
   7   2.0000     -10.221871      -278.1513
   8   2.0000     -10.220632      -278.1175
   9   2.0000     -10.216873      -278.0152
  10   2.0000     -10.213239      -277.9164
  11   2.0000      -1.214075       -33.0367
  12   2.0000      -1.039757       -28.2932
  13   2.0000      -0.969421       -26.3793
  14   2.0000      -0.948763       -25.8172
  15   2.0000      -0.875613       -23.8266
  16   2.0000      -0.789355       -21.4794
  17   2.0000      -0.770868       -20.9764
  18   2.0000      -0.688821       -18.7438
  19   2.0000      -0.644031       -17.5250
  20   2.0000      -0.596468       -16.2307
  21   2.0000      -0.560141       -15.2422
  22   2.0000      -0.550522       -14.9805
  23   2.0000      -0.534713       -14.5503
  24   2.0000      -0.533784       -14.5250
  25   2.0000      -0.502201       -13.6656
  26   2.0000      -0.499602       -13.5949
  27   2.0000      -0.467752       -12.7282
  28   2.0000      -0.464894       -12.6504
  29   2.0000      -0.451271       -12.2797
  30   2.0000      -0.430343       -11.7102
  31   2.0000      -0.418126       -11.3778
  32   2.0000      -0.375680       -10.2228
  33   2.0000      -0.364888        -9.9291
  34   2.0000      -0.341535        -9.2937
  35   2.0000      -0.306037        -8.3277
  36   2.0000      -0.304025        -8.2729
  37   2.0000      -0.288887        -7.8610
  38   2.0000      -0.286848        -7.8055
  39   2.0000      -0.280053        -7.6206
  40   2.0000      -0.248949        -6.7742
  41   0.0000      -0.082387        -2.2419
  42   0.0000      -0.036456        -0.9920
  43   0.0000       0.002652         0.0722
  44   0.0000       0.026934         0.7329
  45   0.0000       0.059414         1.6167

MULLIKEN ATOMIC CHARGES
-----------------------
   0 O :   -0.247953
   1 O :   -0.249434
   2 N :    0.234556
   3 N :   -0.096069
   4 C :    0.173443
   5 C :    0.072303
   6 C :   -0.022967
   7 C :   -0.020709
   8 C :   -0.040127
   9 C :   -0.013954
  10 H :    0.009960
  11 H :    0.008113
  12 H :   -0.017027
  13 H :   -0.026085
  14 H :    0.139633
  15 H :    0.119807
  16 O :   -0.306628
  17 H :    0.151305
  18 H :    0.131832
Sum of atomic charges:    0.0000000

LOEWDIN ATOMIC CHARGES
----------------------
   0 O :   -0.213136
   1 O :   -0.214636
   2 N :    0.276459
   3 N :   -0.007040
   4 C :   -0.049238
   5 C :    0.030766
   6 C :    0.008551
   7 C :    0.009239
   8 C :   -0.053219
   9 C :   -0.054763
  10 H :    0.043211
  11 H :    0.042519
  12 H :    0.030269
  13 H :    0.029125
  14 H :    0.084345
  15 H :    0.079272
  16 O :   -0.153049
  17 H :    0.071958
  18 H :    0.039366

  Mayer bond orders larger than 0.100000
B(  0-O ,  1-O ) :   0.2726 B(  0-O ,  2-N ) :   1.5404 B(  1-O ,  2-N ) :   1.5394
B(  2-N ,  4-C ) :   0.8753 B(  3-N ,  5-C ) :   1.1766 B(  3-N , 14-H ) :   0.9412
B(  3-N , 15-H ) :   0.9450 B(  4-C ,  6-C ) :   1.3506 B(  4-C ,  7-C ) :   1.3624
B(  5-C ,  8-C ) :   1.3112 B(  5-C ,  9-C ) :   1.3178 B(  6-C ,  8-C ) :   1.3715
B(  6-C , 10-H ) :   0.9841 B(  7-C ,  9-C ) :   1.3675 B(  7-C , 11-H ) :   0.9814
B(  8-C , 12-H ) :   0.9861 B(  9-C , 13-H ) :   0.9869 B( 16-O , 17-H ) :   1.0036
B( 16-O , 18-H ) :   0.9755

Dispersion correction           -0.033015013
FINAL SINGLE POINT ENERGY      -567.849719715748

DIPOLE MOMENT
-------------

Method             : SCF
Type of density    : Electron Density
Multiplicity       :   1
Irrep              :   0
Energy             :  -567.8167047030638059 Eh
Relativity type    :
Basis              : AO
                                X                 Y                 Z
Electronic contribution:     11.454383683      -0.178287161      -1.469523584
Nuclear contribution   :    -13.300152428      -0.446979068       0.354794338
                        -----------------------------------------
Total Dipole Moment    :     -1.845768744      -0.625266229      -1.114729246
                        -----------------------------------------
Magnitude (a.u.)       :      2.245092739
Magnitude (Debye)      :      5.706572233

Rotational constants in cm-1:             0.073728             0.018808             0.016331
Rotational constants in MHz :          2210.315922           563.838520           489.598221

                             ****ORCA TERMINATED NORMALLY****
TOTAL RUN TIME: 0 days 0 hours 8 minutes 53 seconds 11 msec
