                         Program Version 6.0.1  -  RELEASE   -
|  1> ! wB97X-D3 def2-TZVPP TightSCF RIJCOSX SP
|  2>
|  3> %pal
|  4> nprocs 28
|  5> end
|  6>
|  7> %maxcore 5000
|  8>
|  9> * xyz -1 2
| 10>   O           0.00533670813972      0.00000000000000      0.00000000000000
| 11>   O           1.32466329186028      0.00000000000000      0.00000000000000
| 12> *
| 13>
| 14>                          ****END OF INPUT****

CARTESIAN COORDINATES (ANGSTROEM)
---------------------------------
  O      0.005337    0.000000    0.000000
  O      1.324663    0.000000    0.000000

 Total Charge           Charge          ....   -1
 Multiplicity           Mult            ....    2
 Number of Electrons    NEL             ....   17
 Basis Dimension        Dim             ....   62

ORBITAL ENERGIES
----------------
                 SPIN UP ORBITALS
  NO   OCC          E(Eh)            E(eV)
   0   1.0000     -18.953599      -515.7536
   1   1.0000     -18.953562      -515.7526
   2   1.0000      -0.925916       -25.1955
   3   1.0000      -0.570133       -15.5141
   4   1.0000      -0.243034        -6.6133
   5   1.0000      -0.237901        -6.4736
   6   1.0000      -0.206071        -5.6075
   7   1.0000      -0.041336        -1.1248
   8   1.0000      -0.001076        -0.0293
   9   0.0000       0.519598        14.1390
  10   0.0000       0.710370        19.3302
  11   0.0000       0.766839        20.8667
  12   0.0000       0.782375        21.2895
  13   0.0000       0.789733        21.4897

                 SPIN DOWN ORBITALS
  NO   OCC          E(Eh)            E(eV)
   0   1.0000     -18.941970      -515.4372
   1   1.0000     -18.941857      -515.4341
   2   1.0000      -0.894617       -24.3438
   3   1.0000      -0.523827       -14.2541
   4   1.0000      -0.218946        -5.9578
   5   1.0000      -0.192117        -5.2278
   6   1.0000      -0.151656        -4.1268
   7   1.0000       0.016463         0.4480
   8   0.0000       0.311376         8.4730
   9   0.0000       0.535127        14.5616
  10   0.0000       0.716262        19.4905
  11   0.0000       0.787089        21.4178
  12   0.0000       0.789947        21.4955

MULLIKEN ATOMIC CHARGES AND SPIN POPULATIONS
--------------------------------------------
   0 O :   -0.500000    0.500000
   1 O :   -0.500000    0.500000
Sum of atomic charges         :   -1.0000000

LOEWDIN ATOMIC CHARGES AND SPIN POPULATIONS
-------------------------------------------
   0 O :   -0.500000    0.500000
   1 O :   -0.500000    0.500000

  Mayer bond orders larger than 0.100000
B(  0-O ,  1-O ) :   1.2997

Dispersion correction           -0.000000319
FINAL SINGLE POINT ENERGY      -150.347103588071

DIPOLE MOMENT
-------------

Method             : SCF
Type of density    : Electron Density
Multiplicity       :   2
Irrep              :   0
Energy             :  -150.3471032688224795 Eh
Relativity type    :
Basis              : AO
                                X                 Y                 Z
Electronic contribution:      0.000000248      -0.000000002       0.000000000
Nuclear contribution   :      0.000000000       0.000000000       0.000000000
                        -----------------------------------------
Total Dipole Moment    :      0.000000248      -0.000000002       0.000000000
                        -----------------------------------------
Magnitude (a.u.)       :      0.000000248
Magnitude (Debye)      :      0.000000631

Rotational constants in cm-1:             0.000000             1.210680             1.210680
Rotational constants in MHz :             0.000000         36295.278616         36295.278616

                             ****ORCA TERMINATED NORMALLY****
TOTAL RUN TIME: 0 days 0 hours 0 minutes 7 seconds 866 msec
