                         Program Version 6.0.1  -  RELEASE   -
|  1> ! B3LYP def2-SVP OPT TightSCF D3BJ
|  2>
|  3>
|  4> %maxcore 4000
|  5>
|  6> %pal
|  7> nprocs 28
|  8> end
|  9>
| 10> * xyz 0 1
| 11> N        3.2365523611     -0.0000811697      0.0003770205
| 12> N       -3.5567856213      0.0001112525     -0.0001335237
| 13> C        1.8700564914     -0.0000465715      0.0001235114
| 14> C        1.1433832013     -1.2127873651      0.0000999708
| 15> C        1.1434453309      1.2127313898      0.0000776682
| 16> C       -0.9636585856      0.0000249446     -0.0000006350
| 17> C       -0.2434230529     -1.2107667599      0.0000406562
| 18> C       -0.2433606069      1.2107815060      0.0000225173
| 19> C       -2.3942814240      0.0000658885     -0.0000738086
| 20> H        1.6840586986     -2.1628589513      0.0001407514
| 21> H        1.6841700713      2.1627754851      0.0001017865
| 22> H       -0.7868310153     -2.1577078024      0.0000158033
| 23> H       -0.7867254750      2.1577470062     -0.0000166211
| 24> H        3.7554218632      0.8655699291     -0.0009453021
| 25> H        3.7553777632     -0.8657587819     -0.0009297950
| 26> O        3.9262573343     -0.0520222865     -2.6664826272
| 27> H        3.2641119192      0.0205369749     -1.9656343890
| 28> H        3.4466081809      0.2433642258     -3.4522997484
| 29> *
| 30>
| 31>
| 32>                          ****END OF INPUT****
 Total Charge           Charge          ....    0
 Multiplicity           Mult            ....    1
 Number of Electrons    NEL             ....   72
Dispersion correction           -0.030937232
FINAL SINGLE POINT ENERGY      -455.703531195344
Dispersion correction             ... done (  0.0 sec)
Dispersion correction           -0.030745950
FINAL SINGLE POINT ENERGY      -455.704547802505
Dispersion correction             ... done (  0.0 sec)
Dispersion correction           -0.030575392
FINAL SINGLE POINT ENERGY      -455.705097126250
Dispersion correction             ... done (  0.0 sec)
FINAL SINGLE POINT ENERGY      -455.705272479954
FINAL SINGLE POINT ENERGY      -455.705323616051
FINAL SINGLE POINT ENERGY      -455.705354727816
FINAL SINGLE POINT ENERGY      -455.705398282151
FINAL SINGLE POINT ENERGY      -455.705493578318
FINAL SINGLE POINT ENERGY      -455.705626087022
FINAL SINGLE POINT ENERGY      -455.705769666370
FINAL SINGLE POINT ENERGY      -455.705949416045
FINAL SINGLE POINT ENERGY      -455.706162236280
FINAL SINGLE POINT ENERGY      -455.706496354067
FINAL SINGLE POINT ENERGY      -455.706965079347
FINAL SINGLE POINT ENERGY      -455.707546695806
FINAL SINGLE POINT ENERGY      -455.707631002931
FINAL SINGLE POINT ENERGY      -455.707718788036
Dispersion correction             ... done (  0.0 sec)
Dispersion correction           -0.029888345
FINAL SINGLE POINT ENERGY      -455.707734675301
Dispersion correction             ... done (  0.0 sec)
Dispersion correction           -0.029887744
FINAL SINGLE POINT ENERGY      -455.707736615216
Dispersion correction             ... done (  0.0 sec)
                    ***********************HURRAY********************

CARTESIAN COORDINATES (ANGSTROEM)
---------------------------------
  N      3.063989    0.042564   -0.357097
  N     -3.689217   -0.026089    0.484516
  C      1.691011    0.027415   -0.143609
  C      0.985553   -1.190966   -0.096866
  C      0.970071    1.231624   -0.024238
  C     -1.112810   -0.000109    0.182762
  C     -0.393592   -1.204690    0.063803
  C     -0.409247    1.218400    0.136358
  C     -2.535123   -0.014281    0.350586
  H      1.531417   -2.133198   -0.191233
  H      1.503771    2.184828   -0.060776
  H     -0.928361   -2.155586    0.100756
  H     -0.956048    2.158481    0.230127
  H      3.558719    0.880275   -0.066679
  H      3.568081   -0.804102   -0.110963
  O      4.738055   -0.090147   -2.762725
  H      3.960120   -0.029950   -2.181313
  H      4.387987    0.117209   -3.638926

 Multiplicity           Mult            ....    1
 Number of Electrons    NEL             ....   72
 Basis Dimension        Dim             ....  180

ORBITAL ENERGIES
----------------

  NO   OCC          E(Eh)            E(eV)
   0   2.0000     -19.101595      -519.7808
   1   2.0000     -14.371506      -391.0686
   2   2.0000     -14.318442      -389.6246
   3   2.0000     -10.260084      -279.1911
   4   2.0000     -10.229742      -278.3654
   5   2.0000     -10.220618      -278.1172
   6   2.0000     -10.220475      -278.1133
   7   2.0000     -10.219477      -278.0861
   8   2.0000     -10.211602      -277.8718
   9   2.0000     -10.211341      -277.8647
  10   2.0000      -0.963262       -26.2117
  11   2.0000      -0.943904       -25.6849
  12   2.0000      -0.891633       -24.2626
  13   2.0000      -0.859896       -23.3990
  14   2.0000      -0.766787       -20.8653
  15   2.0000      -0.763413       -20.7735
  16   2.0000      -0.647288       -17.6136
  17   2.0000      -0.639724       -17.4078
  18   2.0000      -0.565173       -15.3791
  19   2.0000      -0.543197       -14.7811
  20   2.0000      -0.539731       -14.6868
  21   2.0000      -0.498949       -13.5771
  22   2.0000      -0.466928       -12.7057
  23   2.0000      -0.462332       -12.5807
  24   2.0000      -0.447155       -12.1677
  25   2.0000      -0.423899       -11.5349
  26   2.0000      -0.413030       -11.2391
  27   2.0000      -0.377438       -10.2706
  28   2.0000      -0.375877       -10.2281
  29   2.0000      -0.352689        -9.5972
  30   2.0000      -0.351155        -9.5554
  31   2.0000      -0.328799        -8.9471
  32   2.0000      -0.319562        -8.6957
  33   2.0000      -0.282893        -7.6979
  34   2.0000      -0.277980        -7.5642
  35   2.0000      -0.237283        -6.4568
  36   0.0000      -0.045570        -1.2400
  37   0.0000      -0.033237        -0.9044
  38   0.0000       0.030188         0.8215
  39   0.0000       0.039553         1.0763
  40   0.0000       0.054904         1.4940

MULLIKEN ATOMIC CHARGES
-----------------------
   0 N :   -0.094013
   1 N :    0.049436
   2 C :    0.079245
   3 C :   -0.019802
   4 C :   -0.020999
   5 C :   -0.094315
   6 C :    0.041308
   7 C :    0.041214
   8 C :   -0.121059
   9 H :   -0.025298
  10 H :   -0.027216
  11 H :   -0.004902
  12 H :   -0.005259
  13 H :    0.129212
  14 H :    0.132987
  15 O :   -0.323819
  16 H :    0.116781
  17 H :    0.146500
Sum of atomic charges:   -0.0000000

LOEWDIN ATOMIC CHARGES
----------------------
   0 N :   -0.001069
   1 N :   -0.076796
   2 C :    0.032591
   3 C :   -0.054728
   4 C :   -0.055770
   5 C :   -0.092109
   6 C :    0.019887
   7 C :    0.019580
   8 C :   -0.029982
   9 H :    0.030050
  10 H :    0.029207
  11 H :    0.039827
  12 H :    0.039669
  13 H :    0.081082
  14 H :    0.082656
  15 O :   -0.172748
  16 H :    0.036975
  17 H :    0.071679

  Mayer bond orders larger than 0.100000
B(  0-N ,  2-C ) :   1.1858 B(  0-N , 13-H ) :   0.9420 B(  0-N , 14-H ) :   0.9395
B(  0-N , 16-H ) :   0.1089 B(  1-N ,  8-C ) :   3.0052 B(  2-C ,  3-C ) :   1.3178
B(  2-C ,  4-C ) :   1.3181 B(  3-C ,  6-C ) :   1.4002 B(  3-C ,  9-H ) :   0.9869
B(  4-C ,  7-C ) :   1.3996 B(  4-C , 10-H ) :   0.9867 B(  5-C ,  6-C ) :   1.3552
B(  5-C ,  7-C ) :   1.3559 B(  5-C ,  8-C ) :   1.0790 B(  6-C , 11-H ) :   0.9854
B(  7-C , 12-H ) :   0.9853 B( 15-O , 16-H ) :   0.9661 B( 15-O , 17-H ) :   1.0049

Dispersion correction           -0.029885068
FINAL SINGLE POINT ENERGY      -455.707737884312

DIPOLE MOMENT
-------------

Method             : SCF
Type of density    : Electron Density
Multiplicity       :   1
Irrep              :   0
Energy             :  -455.6778528163785040 Eh
Relativity type    :
Basis              : AO
                                X                 Y                 Z
Electronic contribution:    -10.008758304      -0.025252066       3.330407461
Nuclear contribution   :     11.563106310       0.213326256      -3.228463043
                        -----------------------------------------
Total Dipole Moment    :      1.554348006       0.188074190       0.101944418
                        -----------------------------------------
Magnitude (a.u.)       :      1.569000411
Magnitude (Debye)      :      3.988082106

Rotational constants in cm-1:             0.124424             0.016934             0.016166
Rotational constants in MHz :          3730.140358           507.669066           484.631672

                             ****ORCA TERMINATED NORMALLY****
TOTAL RUN TIME: 0 days 0 hours 3 minutes 25 seconds 932 msec
