                         Program Version 6.0.1  -  RELEASE   -
|  1> ! B3LYP def2-SVP OPT TightSCF D3BJ
|  2>
|  3>
|  4> %maxcore 4000
|  5>
|  6> %pal
|  7> nprocs 28
|  8> end
|  9>
| 10> * xyz 0 1
| 11> N       -2.8267651389      0.0000667596     -0.0121257904
| 12> C        1.4057679943     -0.0000032260      0.0175086304
| 13> C       -1.4507458006      0.0000155208     -0.0033655174
| 14> C        0.6723994633     -1.1956143767      0.0151902999
| 15> C        0.6723954129      1.1956667623      0.0145350894
| 16> C       -0.7209483105     -1.2057399615      0.0043266457
| 17> C       -0.7209029216      1.2057992461      0.0036699537
| 18> C        2.9141225032      0.0001508770     -0.0074885975
| 19> H        1.2059720505     -2.1510908844      0.0240322825
| 20> H        1.2059709905      2.1511520344      0.0228575980
| 21> H       -1.2578769485     -2.1589322327      0.0063188786
| 22> H       -1.2578364488      2.1589919596      0.0051431281
| 23> H        3.3264416699      0.8876313551      0.4982386203
| 24> H        3.3263319709     -0.8925960313      0.4888968612
| 25> H        3.3043860606      0.0056316220     -1.0414278995
| 26> H       -3.3439225429      0.8656540008     -0.0171426953
| 27> H       -3.3439900042     -0.8654834251     -0.0166674877
| 28> O       -3.4251702618      0.1408579004      2.8541296017
| 29> H       -2.6550334934      0.1526687609      3.4386289700
| 30> H       -3.0301590041      0.1239273987      1.9718005733
| 31> *
| 32>
| 33>                          ****END OF INPUT****
 Total Charge           Charge          ....    0
 Multiplicity           Mult            ....    1
 Number of Electrons    NEL             ....   68
 Basis Dimension        Dim             ....  181

ORBITAL ENERGIES
----------------

  NO   OCC          E(Eh)            E(eV)
   0   2.0000     -19.092983      -519.5465
   1   2.0000     -14.345863      -390.3708
   2   2.0000     -10.230248      -278.3792
   3   2.0000     -10.183203      -277.0991
   4   2.0000     -10.183147      -277.0975
   5   2.0000     -10.181690      -277.0579
   6   2.0000     -10.181583      -277.0550
   7   2.0000     -10.181015      -277.0395
   8   2.0000     -10.180870      -277.0356
   9   2.0000      -0.956410       -26.0252
  10   2.0000      -0.918953       -25.0060
  11   2.0000      -0.831884       -22.6367
  12   2.0000      -0.746886       -20.3238
  13   2.0000      -0.733013       -19.9463
  14   2.0000      -0.667357       -18.1597
  15   2.0000      -0.610122       -16.6023
  16   2.0000      -0.581622       -15.8267
  17   2.0000      -0.526848       -14.3363
  18   2.0000      -0.526283       -14.3209
  19   2.0000      -0.491235       -13.3672
  20   2.0000      -0.459442       -12.5021
  21   2.0000      -0.444679       -12.1003
  22   2.0000      -0.425966       -11.5911
  23   2.0000      -0.414844       -11.2885
  24   2.0000      -0.412640       -11.2285
  25   2.0000      -0.385614       -10.4931
  26   2.0000      -0.377559       -10.2739
  27   2.0000      -0.354381        -9.6432
  28   2.0000      -0.344888        -9.3849
  29   2.0000      -0.335475        -9.1287
  30   2.0000      -0.305006        -8.2996
  31   2.0000      -0.269903        -7.3444
  32   2.0000      -0.251107        -6.8330
  33   2.0000      -0.201719        -5.4891
  34   0.0000      -0.004852        -0.1320
  35   0.0000       0.012984         0.3533
  36   0.0000       0.046722         1.2714
  37   0.0000       0.069249         1.8844
  38   0.0000       0.081680         2.2226

MULLIKEN ATOMIC CHARGES
-----------------------
   0 N :   -0.092140
   1 C :   -0.038463
   2 C :    0.060971
   3 C :   -0.016206
   4 C :   -0.016090
   5 C :   -0.020366
   6 C :   -0.022357
   7 C :    0.081078
   8 H :   -0.035505
   9 H :   -0.035466
  10 H :   -0.046430
  11 H :   -0.046290
  12 H :    0.008782
  13 H :    0.008584
  14 H :    0.025356
  15 H :    0.121110
  16 H :    0.120332
  17 O :   -0.314126
  18 H :    0.146480
  19 H :    0.110746
Sum of atomic charges:   -0.0000000

LOEWDIN ATOMIC CHARGES
----------------------
   0 N :   -0.003001
   1 C :   -0.056817
   2 C :    0.010600
   3 C :   -0.018580
   4 C :   -0.018556
   5 C :   -0.067829
   6 C :   -0.069048
   7 C :   -0.046078
   8 H :    0.023738
   9 H :    0.023744
  10 H :    0.020664
  11 H :    0.020579
  12 H :    0.027311
  13 H :    0.027264
  14 H :    0.032121
  15 H :    0.074839
  16 H :    0.075573
  17 O :   -0.165919
  18 H :    0.073127
  19 H :    0.036267

  Mayer bond orders larger than 0.100000
B(  0-N ,  2-C ) :   1.1734 B(  0-N , 15-H ) :   0.9459 B(  0-N , 16-H ) :   0.9469
B(  0-N , 19-H ) :   0.1092 B(  1-C ,  3-C ) :   1.3790 B(  1-C ,  4-C ) :   1.3791
B(  1-C ,  7-C ) :   1.0648 B(  2-C ,  5-C ) :   1.3308 B(  2-C ,  6-C ) :   1.3295
B(  3-C ,  5-C ) :   1.3900 B(  3-C ,  8-H ) :   0.9799 B(  4-C ,  6-C ) :   1.3897
B(  4-C ,  9-H ) :   0.9800 B(  5-C , 10-H ) :   0.9842 B(  6-C , 11-H ) :   0.9843
B(  7-C , 12-H ) :   0.9583 B(  7-C , 13-H ) :   0.9583 B(  7-C , 14-H ) :   0.9529
B( 17-O , 18-H ) :   1.0050 B( 17-O , 19-H ) :   0.9781

Dispersion correction           -0.031466813
FINAL SINGLE POINT ENERGY      -402.835362106335
Dispersion correction             ... done (  0.0 sec)
Dispersion correction           -0.031387684
FINAL SINGLE POINT ENERGY      -402.835592257616
Dispersion correction             ... done (  0.0 sec)
Dispersion correction           -0.031327025
FINAL SINGLE POINT ENERGY      -402.835704213690
Dispersion correction             ... done (  0.0 sec)
FINAL SINGLE POINT ENERGY      -402.835794049010
FINAL SINGLE POINT ENERGY      -402.835915917795
FINAL SINGLE POINT ENERGY      -402.836146516297
FINAL SINGLE POINT ENERGY      -402.836474713473
FINAL SINGLE POINT ENERGY      -402.836870750917
FINAL SINGLE POINT ENERGY      -402.837247565227
FINAL SINGLE POINT ENERGY      -402.837806157047
FINAL SINGLE POINT ENERGY      -402.841319402860
FINAL SINGLE POINT ENERGY      -402.841291986701
FINAL SINGLE POINT ENERGY      -402.841354288671
FINAL SINGLE POINT ENERGY      -402.841379016797
FINAL SINGLE POINT ENERGY      -402.841438250761
FINAL SINGLE POINT ENERGY      -402.840778129296
FINAL SINGLE POINT ENERGY      -402.841270104916
Dispersion correction           -0.032100846
FINAL SINGLE POINT ENERGY      -402.841729419720
Dispersion correction             ... done (  0.0 sec)
Dispersion correction           -0.032129323
FINAL SINGLE POINT ENERGY      -402.841796842803
Dispersion correction             ... done (  0.0 sec)

CARTESIAN COORDINATES (ANGSTROEM)
---------------------------------
  N     -2.871042    0.348572    0.180801
  C      1.369498    0.112931    0.054887
  C     -1.465684    0.277741    0.095847
  C      0.578655   -0.996202    0.397783
  C      0.705374    1.306923   -0.253151
  C     -0.811735   -0.921912    0.427900
  C     -0.688870    1.393831   -0.239225
  C      2.873338    0.010307    0.005587
  H      1.060919   -1.942431    0.660632
  H      1.288965    2.193489   -0.517301
  H     -1.406826   -1.779486    0.750149
  H     -1.179161    2.338693   -0.491321
  H      3.346120    1.004446    0.005378
  H      3.268527   -0.552402    0.866994
  H      3.211625   -0.515541   -0.905052
  H     -3.273814    1.202813   -0.192542
  H     -3.337487   -0.461144   -0.218071
  O     -3.180388   -1.120822    2.669263
  H     -2.296361   -0.995207    3.039474
  H     -3.191218   -0.485846    1.929026

Dispersion correction           -0.032141652
FINAL SINGLE POINT ENERGY      -402.841894010199
Dispersion correction             ... done (  0.0 sec)
                             ****ORCA TERMINATED NORMALLY****
TOTAL RUN TIME: 0 days 0 hours 12 minutes 11 seconds 81 msec
