                         Program Version 6.0.1  -  RELEASE   -
|  1> ! wB97X-D3 def2-SVP OPT NormalSCF
|  2>
|  3> %pal
|  4> nprocs 28
|  5> end
|  6>
|  7> %maxcore 3500
|  8>
|  9> %scf
| 10>  SmearTemp 500
| 11> end
| 12>
| 13> * xyz -1 2
| 14> O 0.17169 2.05725 -1.80272
| 15> O -4.09357 -1.39903 1.23266
| 16> C 1.05035 0.444506 -0.274697
| 17> C -0.305395 -0.008963 0.123537
| 18> C -2.60471 -0.656007 -0.45342
| 19> C -1.33946 -0.192201 -0.812935
| 20> C 3.49412 0.268234 0.005916
| 21> C 2.187 -0.132062 0.311259
| 22> C 1.25772 1.47238 -1.22471
| 23> C -0.586309 -0.30619 1.46633
| 24> C -2.85416 -0.945741 0.902383
| 25> C -3.71693 -0.800485 -1.46975
| 26> C 4.67964 -0.392949 0.686038
| 27> C 3.66369 1.28446 -0.938877
| 28> C -1.84297 -0.770883 1.85232
| 29> C 2.55644 1.87872 -1.54619
| 30> C -4.63815 0.394721 -1.45695
| 31> C 4.6667 -1.89288 0.565789
| 32> C -5.92081 0.372055 -1.08833
| 33> C 4.6241 -2.74581 1.5929
| 34> H -1.14861 0.030136 -1.86322
| 35> H 2.04281 -0.949452 1.02155
| 36> H 0.182952 -0.156 2.22669
| 37> H -3.26638 -0.903905 -2.47151
| 38> H -4.29679 -1.71395 -1.26747
| 39> H 5.60741 0.003244 0.237321
| 40> H 4.70509 -0.115308 1.75487
| 41> H 4.66929 1.61904 -1.20833
| 42> H -2.04661 -0.992006 2.90519
| 43> H 2.69827 2.67735 -2.28197
| 44> H -4.17593 1.34601 -1.75068
| 45> H 4.67321 -2.28492 -0.459296
| 46> H 0.470608 2.7632 -2.39045
| 47> H -4.13363 -1.55431 2.18514
| 48> H -6.53208 1.27926 -1.08624
| 49> H -6.40214 -0.556626 -0.765117
| 50> H 4.60897 -3.8286 1.43968
| 51> H 4.60538 -2.38987 2.62898
| 52> O 2.09083 -2.04291 3.35858
| 53> O 1.93261 -1.14798 4.13419
| 54> *
| 55>
| 56>                          ****END OF INPUT****
 Total Charge           Charge          ....   -1
 Multiplicity           Mult            ....    2
 Number of Electrons    NEL             ....  159
Dispersion correction           -0.018601678
FINAL SINGLE POINT ENERGY      -996.485228587640
Dispersion correction             ... done (  0.1 sec)
Dispersion correction           -0.018665031
FINAL SINGLE POINT ENERGY      -996.503717407672
Dispersion correction             ... done (  0.0 sec)
Dispersion correction           -0.018736559
FINAL SINGLE POINT ENERGY      -996.507422537086
Dispersion correction             ... done (  0.0 sec)
FINAL SINGLE POINT ENERGY      -996.510992162650
FINAL SINGLE POINT ENERGY      -996.515250753653
FINAL SINGLE POINT ENERGY      -996.519082570738
FINAL SINGLE POINT ENERGY      -996.521238984159
FINAL SINGLE POINT ENERGY      -996.522353215680
FINAL SINGLE POINT ENERGY      -996.523046923522
FINAL SINGLE POINT ENERGY      -996.523340170422
FINAL SINGLE POINT ENERGY      -996.523983446921
FINAL SINGLE POINT ENERGY      -996.523990810684
FINAL SINGLE POINT ENERGY      -996.524002061710
FINAL SINGLE POINT ENERGY      -996.524011556153
FINAL SINGLE POINT ENERGY      -996.524025825666
FINAL SINGLE POINT ENERGY      -996.524035349653
FINAL SINGLE POINT ENERGY      -996.524037446934
Dispersion correction             ... done (  0.0 sec)
Dispersion correction           -0.019212752
FINAL SINGLE POINT ENERGY      -996.524036020405
Dispersion correction             ... done (  0.0 sec)
Dispersion correction           -0.019208512
FINAL SINGLE POINT ENERGY      -996.524038966814
Dispersion correction             ... done (  0.0 sec)
                    ***********************HURRAY********************

CARTESIAN COORDINATES (ANGSTROEM)
---------------------------------
  O      0.264789    1.806783   -2.061621
  O     -4.080973   -1.387288    1.329366
  C      1.053207    0.332190   -0.340594
  C     -0.313192   -0.092889    0.077008
  C     -2.649913   -0.650673   -0.411397
  C     -1.384882   -0.220188   -0.816676
  C      3.458412    0.252838    0.137486
  C      2.146370   -0.177625    0.365861
  C      1.308984    1.278901   -1.352974
  C     -0.530817   -0.416000    1.427611
  C     -2.843481   -0.961448    0.940624
  C     -3.806144   -0.750928   -1.382472
  C      4.555834   -0.295634    1.028600
  C      3.684694    1.189798   -0.867312
  C     -1.787027   -0.844126    1.843617
  C      2.616129    1.688712   -1.616079
  C     -4.686494    0.470519   -1.344396
  C      4.976946   -1.697502    0.662683
  C     -5.970072    0.486593   -0.986921
  C      4.609173   -2.781029    1.348015
  H     -1.229956    0.018816   -1.871092
  H      1.978817   -0.941734    1.146439
  H      0.285401   -0.324605    2.168625
  H     -3.400069   -0.867120   -2.401472
  H     -4.410039   -1.644968   -1.162477
  H      5.430733    0.377081    0.988565
  H      4.170839   -0.298353    2.060511
  H      4.699090    1.550803   -1.068915
  H     -1.943130   -1.098449    2.898501
  H      2.794218    2.430491   -2.404349
  H     -4.191471    1.413273   -1.612557
  H      5.589426   -1.800702   -0.245136
  H      0.618070    2.479989   -2.649184
  H     -4.045566   -1.576324    2.271376
  H     -6.546735    1.415946   -0.964127
  H     -6.484323   -0.430789   -0.682016
  H      4.920271   -3.780169    1.023299
  H      3.940427   -2.686732    2.216934
  O      2.080346   -1.806384    2.877626
  O      1.856354   -0.649546    3.447483

 Multiplicity           Mult            ....    2
 Number of Electrons    NEL             ....  159
 Basis Dimension        Dim             ....  398

ORBITAL ENERGIES
----------------
                 SPIN UP ORBITALS
  NO   OCC          E(Eh)            E(eV)
   0   1.0000     -19.168929      -521.6131
   1   1.0000     -19.166149      -521.5374
   2   1.0000     -19.036005      -517.9960
   3   1.0000     -19.034919      -517.9665
   4   1.0000     -10.239651      -278.6351
   5   1.0000     -10.239319      -278.6260
   6   1.0000     -10.210418      -277.8396
   7   1.0000     -10.202833      -277.6332
   8   1.0000     -10.200648      -277.5737
   9   1.0000     -10.184672      -277.1390
  10   1.0000     -10.181923      -277.0642
  11   1.0000     -10.180957      -277.0379
  12   1.0000     -10.178015      -276.9579
  13   1.0000     -10.174772      -276.8696
  14   1.0000     -10.174320      -276.8573
  15   1.0000     -10.173237      -276.8278
  16   1.0000     -10.169529      -276.7269
  17   1.0000     -10.168903      -276.7099
  18   1.0000     -10.165585      -276.6196
  19   1.0000     -10.160364      -276.4776
  20   1.0000     -10.152714      -276.2694
  21   1.0000     -10.150197      -276.2009
  22   1.0000      -1.065459       -28.9926
  23   1.0000      -1.063032       -28.9266
  24   1.0000      -0.995601       -27.0917
  25   1.0000      -0.860498       -23.4153
  26   1.0000      -0.845954       -23.0196
  27   1.0000      -0.814585       -22.1660
  28   1.0000      -0.783576       -21.3222
  29   1.0000      -0.765181       -20.8216
  30   1.0000      -0.749547       -20.3962
  31   1.0000      -0.726212       -19.7612
  32   1.0000      -0.710569       -19.3356
  33   1.0000      -0.682871       -18.5819
  34   1.0000      -0.657700       -17.8969
  35   1.0000      -0.625591       -17.0232
  36   1.0000      -0.620112       -16.8741
  37   1.0000      -0.616064       -16.7640
  38   1.0000      -0.585925       -15.9438
  39   1.0000      -0.571123       -15.5410
  40   1.0000      -0.555489       -15.1156
  41   1.0000      -0.531683       -14.4678
  42   1.0000      -0.530917       -14.4470
  43   1.0000      -0.522897       -14.2288
  44   1.0000      -0.493769       -13.4361
  45   1.0000      -0.475775       -12.9465
  46   1.0000      -0.466253       -12.6874
  47   1.0000      -0.452011       -12.2998
  48   1.0000      -0.442841       -12.0503
  49   1.0000      -0.437464       -11.9040
  50   1.0000      -0.430238       -11.7074
  51   1.0000      -0.418776       -11.3955
  52   1.0000      -0.411110       -11.1869
  53   1.0000      -0.406420       -11.0593
  54   1.0000      -0.405559       -11.0358
  55   1.0000      -0.395775       -10.7696
  56   1.0000      -0.391419       -10.6510
  57   1.0000      -0.388272       -10.5654
  58   1.0000      -0.377107       -10.2616
  59   1.0000      -0.366120        -9.9626
  60   1.0000      -0.355861        -9.6835
  61   1.0000      -0.351236        -9.5576
  62   1.0000      -0.345647        -9.4055
  63   1.0000      -0.336478        -9.1560
  64   1.0000      -0.325581        -8.8595
  65   1.0000      -0.322968        -8.7884
  66   1.0000      -0.317188        -8.6311
  67   1.0000      -0.311435        -8.4746
  68   1.0000      -0.307142        -8.3578
  69   1.0000      -0.296977        -8.0811
  70   1.0000      -0.286659        -7.8004
  71   1.0000      -0.265419        -7.2224
  72   1.0000      -0.261072        -7.1041
  73   1.0000      -0.235453        -6.4070
  74   1.0000      -0.225650        -6.1402
  75   1.0000      -0.217635        -5.9222
  76   1.0000      -0.189835        -5.1657
  77   1.0000      -0.168255        -4.5784
  78   1.0000      -0.107626        -2.9287
  79   1.0000      -0.069888        -1.9017
  80   0.0000       0.164642         4.4801
  81   0.0000       0.171035         4.6541
  82   0.0000       0.196337         5.3426
  83   0.0000       0.201838         5.4923
  84   0.0000       0.219529         5.9737

                 SPIN DOWN ORBITALS
  NO   OCC          E(Eh)            E(eV)
   0   1.0000     -19.168929      -521.6131
   1   1.0000     -19.166149      -521.5374
   2   1.0000     -19.024585      -517.6853
   3   1.0000     -19.023115      -517.6453
   4   1.0000     -10.239651      -278.6351
   5   1.0000     -10.239318      -278.6260
   6   1.0000     -10.210418      -277.8396
   7   1.0000     -10.202832      -277.6332
   8   1.0000     -10.200648      -277.5737
   9   1.0000     -10.184676      -277.1391
  10   1.0000     -10.181925      -277.0643
  11   1.0000     -10.180959      -277.0380
  12   1.0000     -10.178015      -276.9579
  13   1.0000     -10.174772      -276.8696
  14   1.0000     -10.174322      -276.8574
  15   1.0000     -10.173238      -276.8279
  16   1.0000     -10.169523      -276.7268
  17   1.0000     -10.168901      -276.7099
  18   1.0000     -10.165609      -276.6203
  19   1.0000     -10.160406      -276.4787
  20   1.0000     -10.152631      -276.2671
  21   1.0000     -10.150232      -276.2018
  22   1.0000      -1.065461       -28.9927
  23   1.0000      -1.063033       -28.9266
  24   1.0000      -0.964520       -26.2459
  25   1.0000      -0.860508       -23.4156
  26   1.0000      -0.845965       -23.0199
  27   1.0000      -0.814595       -22.1663
  28   1.0000      -0.783570       -21.3220
  29   1.0000      -0.765181       -20.8216
  30   1.0000      -0.749564       -20.3967
  31   1.0000      -0.726179       -19.7603
  32   1.0000      -0.710577       -19.3358
  33   1.0000      -0.682882       -18.5822
  34   1.0000      -0.657586       -17.8938
  35   1.0000      -0.625342       -17.0164
  36   1.0000      -0.616178       -16.7671
  37   1.0000      -0.586036       -15.9468
  38   1.0000      -0.575917       -15.6715
  39   1.0000      -0.570735       -15.5305
  40   1.0000      -0.555199       -15.1077
  41   1.0000      -0.531616       -14.4660
  42   1.0000      -0.530595       -14.4382
  43   1.0000      -0.522684       -14.2230
  44   1.0000      -0.493730       -13.4351
  45   1.0000      -0.475748       -12.9458
  46   1.0000      -0.466252       -12.6874
  47   1.0000      -0.452017       -12.3000
  48   1.0000      -0.442815       -12.0496
  49   1.0000      -0.437267       -11.8987
  50   1.0000      -0.430222       -11.7069
  51   1.0000      -0.418745       -11.3946
  52   1.0000      -0.410680       -11.1752
  53   1.0000      -0.406373       -11.0580
  54   1.0000      -0.405487       -11.0339
  55   1.0000      -0.395690       -10.7673
  56   1.0000      -0.391045       -10.6409
  57   1.0000      -0.387842       -10.5537
  58   1.0000      -0.377091       -10.2612
  59   1.0000      -0.365923        -9.9573
  60   1.0000      -0.355852        -9.6832
  61   1.0000      -0.350849        -9.5471
  62   1.0000      -0.343193        -9.3388
  63   1.0000      -0.330826        -9.0022
  64   1.0000      -0.324035        -8.8174
  65   1.0000      -0.321595        -8.7510
  66   1.0000      -0.313466        -8.5298
  67   1.0000      -0.303356        -8.2547
  68   1.0000      -0.301292        -8.1986
  69   1.0000      -0.280369        -7.6292
  70   1.0000      -0.264586        -7.1997
  71   1.0000      -0.249934        -6.8011
  72   1.0000      -0.235809        -6.4167
  73   1.0000      -0.226925        -6.1749
  74   1.0000      -0.219954        -5.9853
  75   1.0000      -0.213734        -5.8160
  76   1.0000      -0.189691        -5.1617
  77   1.0000      -0.168228        -4.5777
  78   1.0000      -0.051159        -1.3921
  79   0.0000       0.164578         4.4784
  80   0.0000       0.171045         4.6544
  81   0.0000       0.196129         5.3370
  82   0.0000       0.201648         5.4871
  83   0.0000       0.219565         5.9747

LOEWDIN ATOMIC CHARGES AND SPIN POPULATIONS
-------------------------------------------
   0 O :   -0.070159   -0.000005
   1 O :   -0.075364   -0.000018
   2 C :   -0.055362   -0.000232
   3 C :   -0.042113   -0.000398
   4 C :   -0.079579   -0.000239
   5 C :   -0.019554    0.000107
   6 C :   -0.042528   -0.000070
   7 C :    0.021844   -0.001878
   8 C :    0.043660    0.000011
   9 C :    0.016774   -0.002134
  10 C :    0.041588   -0.000044
  11 C :   -0.029102    0.000002
  12 C :   -0.032411   -0.000894
  13 C :   -0.045537   -0.000049
  14 C :   -0.092182   -0.000270
  15 C :   -0.115597   -0.000186
  16 C :   -0.014738   -0.000014
  17 C :   -0.047862    0.000528
  18 C :   -0.090518   -0.000006
  19 C :   -0.068193    0.002814
  20 H :    0.019399   -0.000028
  21 H :    0.030002   -0.002420
  22 H :    0.033928   -0.003468
  23 H :    0.031279   -0.000003
  24 H :    0.029315   -0.000005
  25 H :    0.015423   -0.000053
  26 H :    0.048275   -0.001555
  27 H :    0.015392   -0.000013
  28 H :    0.023808   -0.000103
  29 H :    0.010865   -0.000001
  30 H :    0.026074   -0.000001
  31 H :    0.006698   -0.000087
  32 H :    0.078300   -0.000004
  33 H :    0.083716    0.000000
  34 H :    0.017502   -0.000000
  35 H :    0.020142   -0.000000
  36 H :    0.007804    0.000481
  37 H :    0.028989    0.000663
  38 O :   -0.358739    0.493800
  39 O :   -0.371243    0.515773

  Mayer bond orders larger than 0.100000
B(  0-O ,  8-C ) :   1.1577 B(  0-O , 32-H ) :   0.9706 B(  1-O , 10-C ) :   1.1756
B(  1-O , 33-H ) :   0.9697 B(  2-C ,  3-C ) :   0.9696 B(  2-C ,  7-C ) :   1.4090
B(  2-C ,  8-C ) :   1.3533 B(  3-C ,  5-C ) :   1.3711 B(  3-C ,  9-C ) :   1.3821
B(  4-C ,  5-C ) :   1.4040 B(  4-C , 10-C ) :   1.3885 B(  4-C , 11-C ) :   1.0257
B(  5-C , 20-H ) :   0.9857 B(  6-C ,  7-C ) :   1.3596 B(  6-C , 12-C ) :   1.0204
B(  6-C , 13-C ) :   1.4168 B(  7-C , 21-H ) :   0.9118 B(  8-C , 15-C ) :   1.3646
B(  9-C , 14-C ) :   1.3966 B(  9-C , 22-H ) :   0.9110 B( 10-C , 14-C ) :   1.3219
B( 11-C , 16-C ) :   1.0423 B( 11-C , 23-H ) :   0.9240 B( 11-C , 24-H ) :   0.9338
B( 12-C , 17-C ) :   1.0294 B( 12-C , 25-H ) :   0.9303 B( 12-C , 26-H ) :   0.9267
B( 13-C , 15-C ) :   1.3469 B( 13-C , 27-H ) :   0.9847 B( 14-C , 28-H ) :   0.9920
B( 15-C , 29-H ) :   0.9770 B( 16-C , 18-C ) :   2.0136 B( 16-C , 30-H ) :   0.9603
B( 17-C , 19-C ) :   2.0241 B( 17-C , 31-H ) :   0.9623 B( 18-C , 34-H ) :   0.9581
B( 18-C , 35-H ) :   0.9587 B( 19-C , 36-H ) :   0.9573 B( 19-C , 37-H ) :   0.9117
B( 21-H , 38-O ) :   0.2212 B( 22-H , 39-O ) :   0.2161 B( 37-H , 38-O ) :   0.1182
B( 38-O , 39-O ) :   1.3470

Dispersion correction           -0.019210824
FINAL SINGLE POINT ENERGY      -996.524039180183

DIPOLE MOMENT
-------------

Method             : SCF
Type of density    : Electron Density
Multiplicity       :   2
Irrep              :   0
Energy             :  -996.5048283566570717 Eh
Relativity type    :
Basis              : AO
                                X                 Y                 Z
Electronic contribution:     -0.883984570       2.481415490       1.328904014
Nuclear contribution   :     -1.218517823      -1.081300416      -4.374587326
                        -----------------------------------------
Total Dipole Moment    :     -2.102502393       1.400115074      -3.045683312
                        -----------------------------------------
Magnitude (a.u.)       :      3.956895926
Magnitude (Debye)      :     10.057630151

Rotational constants in cm-1:             0.015775             0.005132             0.004149
Rotational constants in MHz :           472.922187           153.839810           124.370163

                             ****ORCA TERMINATED NORMALLY****
TOTAL RUN TIME: 0 days 0 hours 14 minutes 10 seconds 215 msec
