                         Program Version 6.0.1  -  RELEASE   -
|  1> ! B3LYP def2-SVP OPT TightSCF D3BJ
|  2>
|  3>
|  4> %maxcore 3000
|  5>
|  6> %pal
|  7> nprocs 40
|  8> end
|  9>
| 10> * xyz 0 1
| 11> O        2.6564963626     -0.4722564747      1.3460196757
| 12> O        2.7259080305     -0.3265998663     -0.8139524062
| 13> N        2.1558443160     -0.2106614206      0.2614139524
| 14> N       -3.1553403472      1.7003671867      0.2126769946
| 15> C        0.7729260133      0.2767374523      0.2497518301
| 16> C       -1.8604934406      1.1930728056      0.2273325816
| 17> C        0.0881684338      0.4191680035      1.4577632685
| 18> C        0.1663100526      0.5922657996     -0.9693027506
| 19> C       -1.2240497158      0.8761616919      1.4438104185
| 20> C       -1.1432349543      1.0520328581     -0.9809034412
| 21> H        0.5946433983      0.1639193557      2.3879449460
| 22> H        0.7367856384      0.4741678288     -1.8901038612
| 23> H       -1.7698062444      0.9868535293      2.3845312156
| 24> H       -1.6222011759      1.3492181384     -1.9152789499
| 25> H       -3.6886502349      1.5589531537      1.0703559515
| 26> H       -3.7030974023      1.4833980528     -0.6159829244
| 27> O       -4.4462992333      4.4818280121      0.4280744754
| 28> H       -3.8637438530      3.7160420644      0.3304013606
| 29> H       -3.8326586184      5.2338695460      0.3788509797
| 30>
| 31> *
| 32>
| 33>
| 34>                          ****END OF INPUT****
 Total Charge           Charge          ....    0
 Multiplicity           Mult            ....    1
 Number of Electrons    NEL             ....   82
Dispersion correction           -0.031128376
FINAL SINGLE POINT ENERGY      -567.846126983193
Dispersion correction             ... done (  0.1 sec)
Dispersion correction           -0.031198050
FINAL SINGLE POINT ENERGY      -567.846461564899
Dispersion correction             ... done (  0.1 sec)
Dispersion correction           -0.031282307
FINAL SINGLE POINT ENERGY      -567.846611399834
Dispersion correction             ... done (  0.1 sec)
FINAL SINGLE POINT ENERGY      -567.846102221393
FINAL SINGLE POINT ENERGY      -567.846721255707
FINAL SINGLE POINT ENERGY      -567.846755058803
FINAL SINGLE POINT ENERGY      -567.846807528093
FINAL SINGLE POINT ENERGY      -567.846833731187
FINAL SINGLE POINT ENERGY      -567.846863156950
FINAL SINGLE POINT ENERGY      -567.846897172752
FINAL SINGLE POINT ENERGY      -567.846945800305
FINAL SINGLE POINT ENERGY      -567.846967740874
Dispersion correction             ... done (  0.1 sec)
Dispersion correction           -0.031365767
FINAL SINGLE POINT ENERGY      -567.846975727954
Dispersion correction             ... done (  0.1 sec)
Dispersion correction           -0.031363875
FINAL SINGLE POINT ENERGY      -567.846978547468
Dispersion correction             ... done (  0.1 sec)
                    ***********************HURRAY********************

CARTESIAN COORDINATES (ANGSTROEM)
---------------------------------
  O      2.642764   -0.369229    1.368972
  O      2.715564   -0.265649   -0.793615
  N      2.140235   -0.140252    0.278057
  N     -3.206961    1.656041    0.184498
  C      0.748045    0.316456    0.252955
  C     -1.905828    1.180300    0.205181
  C      0.054447    0.469450    1.455723
  C      0.136962    0.588256   -0.973472
  C     -1.265458    0.899119    1.430378
  C     -1.182990    1.018193   -0.995371
  H      0.563234    0.245773    2.392823
  H      0.708883    0.455259   -1.891223
  H     -1.815339    1.023151    2.366670
  H     -1.667320    1.236944   -1.950337
  H     -3.776661    1.477936    1.005762
  H     -3.721939    1.556085   -0.684505
  O     -4.257642    4.400211    0.478284
  H     -3.662130    3.641286    0.355353
  H     -3.660357    5.159207    0.507271

 Multiplicity           Mult            ....    1
 Number of Electrons    NEL             ....   82
 Basis Dimension        Dim             ....  194

ORBITAL ENERGIES
----------------

  NO   OCC          E(Eh)            E(eV)
   0   2.0000     -19.152483      -521.1656
   1   2.0000     -19.152439      -521.1644
   2   2.0000     -19.104100      -519.8490
   3   2.0000     -14.551052      -395.9543
   4   2.0000     -14.376324      -391.1997
   5   2.0000     -10.265697      -279.3438
   6   2.0000     -10.240538      -278.6592
   7   2.0000     -10.220967      -278.1266
   8   2.0000     -10.220945      -278.1260
   9   2.0000     -10.215238      -277.9707
  10   2.0000     -10.215095      -277.9669
  11   2.0000      -1.212996       -33.0073
  12   2.0000      -1.038607       -28.2619
  13   2.0000      -0.965799       -26.2807
  14   2.0000      -0.948771       -25.8174
  15   2.0000      -0.874926       -23.8080
  16   2.0000      -0.788825       -21.4650
  17   2.0000      -0.770574       -20.9684
  18   2.0000      -0.688704       -18.7406
  19   2.0000      -0.643637       -17.5143
  20   2.0000      -0.596971       -16.2444
  21   2.0000      -0.560441       -15.2504
  22   2.0000      -0.548996       -14.9389
  23   2.0000      -0.535070       -14.5600
  24   2.0000      -0.532880       -14.5004
  25   2.0000      -0.501559       -13.6481
  26   2.0000      -0.499090       -13.5809
  27   2.0000      -0.467671       -12.7260
  28   2.0000      -0.462698       -12.5906
  29   2.0000      -0.451032       -12.2732
  30   2.0000      -0.431085       -11.7304
  31   2.0000      -0.416723       -11.3396
  32   2.0000      -0.375018       -10.2047
  33   2.0000      -0.361419        -9.8347
  34   2.0000      -0.343936        -9.3590
  35   2.0000      -0.305079        -8.3016
  36   2.0000      -0.303148        -8.2491
  37   2.0000      -0.285905        -7.7799
  38   2.0000      -0.285082        -7.7575
  39   2.0000      -0.280219        -7.6252
  40   2.0000      -0.246165        -6.6985
  41   0.0000      -0.081242        -2.2107
  42   0.0000      -0.035760        -0.9731
  43   0.0000       0.004282         0.1165
  44   0.0000       0.027967         0.7610
  45   0.0000       0.059656         1.6233

MULLIKEN ATOMIC CHARGES
-----------------------
   0 O :   -0.250154
   1 O :   -0.250277
   2 N :    0.235174
   3 N :   -0.089779
   4 C :    0.168579
   5 C :    0.092590
   6 C :   -0.018165
   7 C :   -0.017906
   8 C :   -0.022601
   9 C :   -0.023748
  10 H :    0.008257
  11 H :    0.008029
  12 H :   -0.022899
  13 H :   -0.024034
  14 H :    0.133680
  15 H :    0.132103
  16 O :   -0.322060
  17 H :    0.115860
  18 H :    0.147351
Sum of atomic charges:    0.0000000

LOEWDIN ATOMIC CHARGES
----------------------
   0 O :   -0.215193
   1 O :   -0.215356
   2 N :    0.276652
   3 N :    0.004402
   4 C :   -0.051359
   5 C :    0.037680
   6 C :    0.010849
   7 C :    0.010767
   8 C :   -0.054026
   9 C :   -0.054545
  10 H :    0.042692
  11 H :    0.042607
  12 H :    0.030422
  13 H :    0.029924
  14 H :    0.083492
  15 H :    0.082822
  16 O :   -0.171364
  17 H :    0.037145
  18 H :    0.072388

  Mayer bond orders larger than 0.100000
B(  0-O ,  1-O ) :   0.2713 B(  0-O ,  2-N ) :   1.5386 B(  1-O ,  2-N ) :   1.5385
B(  2-N ,  4-C ) :   0.8778 B(  3-N ,  5-C ) :   1.2009 B(  3-N , 14-H ) :   0.9388
B(  3-N , 15-H ) :   0.9409 B(  3-N , 17-H ) :   0.1058 B(  4-C ,  6-C ) :   1.3551
B(  4-C ,  7-C ) :   1.3556 B(  5-C ,  8-C ) :   1.3049 B(  5-C ,  9-C ) :   1.3045
B(  6-C ,  8-C ) :   1.3779 B(  6-C , 10-H ) :   0.9813 B(  7-C ,  9-C ) :   1.3781
B(  7-C , 11-H ) :   0.9812 B(  8-C , 12-H ) :   0.9882 B(  9-C , 13-H ) :   0.9882
B( 16-O , 17-H ) :   0.9689 B( 16-O , 18-H ) :   1.0047

Dispersion correction           -0.031361884
FINAL SINGLE POINT ENERGY      -567.846981004698

DIPOLE MOMENT
-------------

Method             : SCF
Type of density    : Electron Density
Multiplicity       :   1
Irrep              :   0
Energy             :  -567.8156191207882557 Eh
Relativity type    :
Basis              : AO
                                X                 Y                 Z
Electronic contribution:     11.658523280      -6.451206977      -0.094315917
Nuclear contribution   :    -13.280070489       6.676795481      -0.042531360
                        -----------------------------------------
Total Dipole Moment    :     -1.621547209       0.225588504      -0.136847277
                        -----------------------------------------
Magnitude (a.u.)       :      1.642873307
Magnitude (Debye)      :      4.175852085

Rotational constants in cm-1:             0.093852             0.014540             0.013615
Rotational constants in MHz :          2813.612303           435.896466           408.169691

                             ****ORCA TERMINATED NORMALLY****
TOTAL RUN TIME: 0 days 0 hours 3 minutes 5 seconds 954 msec
