                         Program Version 6.0.1  -  RELEASE   -
|  1> ! TPSSh def2-TZVP SP SlowConv ALLPOP KEEPDENS D3BJ CPCM(WATER)
|  2>
|  3> %maxcore 5000
|  4>
|  5> %pal
|  6> nprocs 20
|  7> end
|  8>
|  9> * xyz 2 1
| 10>   Zn          1.03396256473772      0.90470833644148      1.14887272483556
| 11>   H          -0.97162268290471     -0.03057422186550     -0.36945142248513
| 12>   O          -0.83992945767029      0.74943795209993      0.19017078840979
| 13>   H          -1.59593147305779      0.77670628952919      0.79623993340945
| 14>   H           3.66813572326755      1.05096162928264      1.45064210294826
| 15>   O           2.92730962551606      1.03396168288918      2.07555841676761
| 16>   H           3.06010067983568      1.78761903366549      2.67012149549641
| 17>   H           0.60352426126900      2.96429496286128     -0.46673018983176
| 18>   O           1.15294809991280      2.84783200568905      0.32336055241634
| 19>   H           2.03919886577128      3.15629026704713      0.08149812747777
| 20>   H           0.22553765204316     -1.58093244956633      1.73986514304505
| 21>   O           0.78646041357932     -0.91999579401580      2.17320559903028
| 22>   H           1.61603355147471     -1.37276883144666      2.38855590591962
| 23>   H           0.11757397566324      1.36026446325989      3.61778464961340
| 24>   O           0.02092980109095      1.80736357267173      2.76367169397468
| 25>   H           0.24261912131329      2.73790804616623      2.91747290506223
| 26>   H           1.83229901901631     -0.93369482665438     -0.62568803883065
| 27>   O           2.04499915390427      0.00013487081151     -0.47607531100219
| 28>   H           1.92852110523736      0.43994301113387     -1.33206507625683
| 29> *
| 30>
| 31>                          ****END OF INPUT****

CARTESIAN COORDINATES (ANGSTROEM)
---------------------------------
  Zn     1.033963    0.904708    1.148873
  H     -0.971623   -0.030574   -0.369451
  O     -0.839929    0.749438    0.190171
  H     -1.595931    0.776706    0.796240
  H      3.668136    1.050962    1.450642
  O      2.927310    1.033962    2.075558
  H      3.060101    1.787619    2.670121
  H      0.603524    2.964295   -0.466730
  O      1.152948    2.847832    0.323361
  H      2.039199    3.156290    0.081498
  H      0.225538   -1.580932    1.739865
  O      0.786460   -0.919996    2.173206
  H      1.616034   -1.372769    2.388556
  H      0.117574    1.360264    3.617785
  O      0.020930    1.807364    2.763672
  H      0.242619    2.737908    2.917473
  H      1.832299   -0.933695   -0.625688
  O      2.044999    0.000135   -0.476075
  H      1.928521    0.439943   -1.332065

 Total Charge           Charge          ....    2
 Multiplicity           Mult            ....    1
 Number of Electrons    NEL             ....   88
 Basis Dimension        Dim             ....  306

ORBITAL ENERGIES
----------------

  NO   OCC          E(Eh)            E(eV)
   0   2.0000    -347.010926     -9442.6473
   1   2.0000     -42.022179     -1143.4816
   2   2.0000     -36.973561     -1006.1018
   3   2.0000     -36.973308     -1006.0949
   4   2.0000     -36.973028     -1006.0872
   5   2.0000     -19.107214      -519.9337
   6   2.0000     -19.106240      -519.9072
   7   2.0000     -19.106150      -519.9048
   8   2.0000     -19.106118      -519.9039
   9   2.0000     -19.106068      -519.9025
  10   2.0000     -19.104499      -519.8598
  11   2.0000      -4.766018      -129.6899
  12   2.0000      -3.154380       -85.8350
  13   2.0000      -3.154237       -85.8312
  14   2.0000      -3.154117       -85.8279
  15   2.0000      -1.044912       -28.4335
  16   2.0000      -1.037544       -28.2330
  17   2.0000      -1.037044       -28.2194
  18   2.0000      -1.036648       -28.2086
  19   2.0000      -1.034366       -28.1465
  20   2.0000      -1.033852       -28.1325
  21   2.0000      -0.557137       -15.1605
  22   2.0000      -0.555580       -15.1181
  23   2.0000      -0.555042       -15.1035
  24   2.0000      -0.554490       -15.0884
  25   2.0000      -0.553340       -15.0571
  26   2.0000      -0.553012       -15.0482
  27   2.0000      -0.494974       -13.4689
  28   2.0000      -0.492716       -13.4075
  29   2.0000      -0.492225       -13.3941
  30   2.0000      -0.458003       -12.4629
  31   2.0000      -0.450695       -12.2640
  32   2.0000      -0.449770       -12.2389
  33   2.0000      -0.447977       -12.1901
  34   2.0000      -0.439794       -11.9674
  35   2.0000      -0.429320       -11.6824
  36   2.0000      -0.389861       -10.6087
  37   2.0000      -0.386502       -10.5172
  38   2.0000      -0.362809        -9.8725
  39   2.0000      -0.358109        -9.7446
  40   2.0000      -0.349285        -9.5045
  41   2.0000      -0.343069        -9.3354
  42   2.0000      -0.323326        -8.7981
  43   2.0000      -0.323160        -8.7936
  44   0.0000      -0.032379        -0.8811
  45   0.0000       0.017275         0.4701
  46   0.0000       0.022308         0.6070
  47   0.0000       0.026697         0.7265
  48   0.0000       0.064776         1.7627

MULLIKEN ATOMIC CHARGES
-----------------------
   0 Zn:    0.748565
   1 H :    0.404540
   2 O :   -0.604230
   3 H :    0.406019
   4 H :    0.406732
   5 O :   -0.601169
   6 H :    0.403961
   7 H :    0.406317
   8 O :   -0.599853
   9 H :    0.403849
  10 H :    0.404039
  11 O :   -0.598631
  12 H :    0.406286
  13 H :    0.405226
  14 O :   -0.608507
  15 H :    0.405451
  16 H :    0.404496
  17 O :   -0.597923
  18 H :    0.404833
Sum of atomic charges:    2.0000000

LOEWDIN ATOMIC CHARGES
----------------------
   0 Zn:    0.021576
   1 H :    0.211366
   2 O :   -0.093036
   3 H :    0.211430
   4 H :    0.211194
   5 O :   -0.093067
   6 H :    0.211688
   7 H :    0.211189
   8 O :   -0.093712
   9 H :    0.211399
  10 H :    0.211621
  11 O :   -0.091924
  12 H :    0.211545
  13 H :    0.210488
  14 O :   -0.092316
  15 H :    0.210294
  16 H :    0.212155
  17 O :   -0.094218
  18 H :    0.212326

  Mayer bond orders larger than 0.100000
B(  0-Zn,  2-O ) :   0.3356 B(  0-Zn,  5-O ) :   0.3380 B(  0-Zn,  8-O ) :   0.3434
B(  0-Zn, 11-O ) :   0.3451 B(  0-Zn, 14-O ) :   0.3436 B(  0-Zn, 17-O ) :   0.3299
B(  1-H ,  2-O ) :   0.8403 B(  2-O ,  3-H ) :   0.8389 B(  4-H ,  5-O ) :   0.8386
B(  5-O ,  6-H ) :   0.8412 B(  7-H ,  8-O ) :   0.8383 B(  8-O ,  9-H ) :   0.8410
B( 10-H , 11-O ) :   0.8401 B( 11-O , 12-H ) :   0.8388 B( 13-H , 14-O ) :   0.8395
B( 14-O , 15-H ) :   0.8389 B( 16-H , 17-O ) :   0.8406 B( 17-O , 18-H ) :   0.8413

Dispersion correction           -0.016902602
FINAL SINGLE POINT ENERGY     -2238.005526542191

DIPOLE MOMENT
-------------

Method             : SCF
Type of density    : Electron Density
Multiplicity       :   1
Irrep              :   0
Energy             : -2237.9886239399065744 Eh
Relativity type    :
Basis              : AO
                                X                 Y                 Z
Electronic contribution:      0.090408051      -0.057892289      -0.085325062
Nuclear contribution   :      0.386207981      -0.502565570      -0.916734246
                        -----------------------------------------
Total Dipole Moment    :      0.476616032      -0.560457859      -1.002059308
                        -----------------------------------------
Magnitude (a.u.)       :      1.243140663
Magnitude (Debye)      :      3.159812452

Rotational constants in cm-1:             0.050423             0.049045             0.048081
Rotational constants in MHz :          1511.657622          1470.319100          1441.434169

                             ****ORCA TERMINATED NORMALLY****
TOTAL RUN TIME: 0 days 0 hours 0 minutes 15 seconds 434 msec
