                         Program Version 6.0.1  -  RELEASE   -
|  1> ! wB97X-D3 def2-SVP OPT NormalSCF
|  2>
|  3> %pal
|  4> nprocs 28
|  5> end
|  6>
|  7> %maxcore 5000
|  8>
|  9> %scf
| 10>  SmearTemp 500
| 11> end
| 12>
| 13> * xyz 0 1
| 14>    C        3.36385       -1.99584        0.38646
| 15>    C        3.66055       -0.57285        0.43521
| 16>    C        3.24083        0.19236        1.52993
| 17>    C        2.65579       -2.60009        1.43242
| 18>    C        3.06154       -2.34719       -0.99412
| 19>    C        3.52891       -0.04432       -0.91554
| 20>    C        2.68634        1.51935        1.31924
| 21>    C        2.49219       -0.43431        2.60563
| 22>    C        1.61945       -3.57839        1.13966
| 23>    C        2.20962       -1.80097        2.56343
| 24>    C        2.06732       -3.28952       -1.27468
| 25>    C        3.16250       -1.13814       -1.79683
| 26>    C        2.96525        1.21888       -1.11221
| 27>    C        1.58281        1.70918        2.24615
| 28>    C        2.55208        2.00833        0.02176
| 29>    C        1.46576        0.50539        3.03265
| 30>    C        1.33369       -3.91928       -0.18663
| 31>    C        0.53446       -3.38568        2.09143
| 32>    C        0.89500       -2.28044        2.96586
| 33>    C        1.13794       -3.06222       -2.37168
| 34>    C        2.25990       -0.90971       -2.83933
| 35>    C        2.00935        1.46506       -2.17527
| 36>    C        0.46725        2.47722        1.87801
| 37>    C        1.41956        2.82563       -0.34340
| 38>    C        0.20174        0.05572        3.39970
| 39>    C       -0.04719       -4.08725       -0.61375
| 40>    C       -0.79306       -3.54695        1.68045
| 41>    C       -0.08459       -1.37201        3.38264
| 42>    C       -0.16724       -3.56163       -1.96546
| 43>    C        1.23252       -1.89436       -3.13820
| 44>    C        1.68026        0.41383       -3.03167
| 45>    C        1.00726        2.43337       -1.70273
| 46>    C        0.57561        3.29583        0.66903
| 47>    C       -0.88661        1.96651        2.18929
| 48>    C       -0.98028        0.78308        2.96108
| 49>    C       -1.08994       -3.90896        0.30161
| 50>    C       -1.81255       -2.61139        2.12910
| 51>    C       -1.45957       -1.53957        2.95751
| 52>    C       -1.32709       -2.88258       -2.35126
| 53>    C        0.02672       -1.18089       -3.52921
| 54>    C        0.30692        0.24734       -3.45636
| 55>    C       -0.33714        2.27445       -2.12066
| 56>    C       -1.50375        3.04089        0.03062
| 57>    C       -1.90782        2.18383        1.14331
| 58>    C       -2.01310       -0.21479        2.71689
| 59>    C       -2.29807       -3.20460       -0.09952
| 60>    C       -2.74662       -2.40642        1.03166
| 61>    C       -2.41515       -2.70096       -1.40056
| 62>    C       -1.22687       -1.67322       -3.15453
| 63>    C       -0.66507        1.14123       -3.00315
| 64>    C       -1.51406        2.47096       -1.24894
| 65>    C       -2.83732        1.16909        0.87888
| 66>    C       -2.91733       -0.03068        1.67699
| 67>    C       -3.29656       -1.14096        0.81622
| 68>    C       -2.99147       -1.38385       -1.62202
| 69>    C       -2.25031       -0.74901       -2.70222
| 70>    C       -1.96738        0.61833       -2.63686
| 71>    C       -2.44353        1.40100       -1.52375
| 72>    C       -3.16361        0.80567       -0.48959
| 73>    C       -3.43391       -0.62162       -0.53423
| 74>    H        1.01079        5.70594        4.39439
| 75>    C       -0.02502        6.07921        4.37886
| 76>    H       -0.14197        6.80711        5.19798
| 77>    H        0.31794        7.60819        2.86708
| 78>    C       -0.34142        6.74847        3.05268
| 79>    O       -0.09377        5.86121        1.93801
| 80>    H       -0.70881        5.23855        4.56885
| 81>    C       -1.06593        5.01385        1.58305
| 82>    C       -0.59369        4.18199        0.36495
| 83>    O       -2.14368        4.93390        2.10853
| 84>    H       -1.38979        7.07988        3.01259
| 85>    C       -0.37576        5.20146       -0.77482
| 86>    H       -3.62271        6.46433       -2.59559
| 87>    O       -1.54600        5.77178       -1.08241
| 88>    H       -1.12736        6.33894       -3.03390
| 89>    O        0.67586        5.47844       -1.28485
| 90>    C       -1.53396        6.78416       -2.11160
| 91>    C       -2.95187        7.28288       -2.29224
| 92>    H       -2.97708        8.05869       -3.07354
| 93>    H       -3.33996        7.71875       -1.35860
| 94>    H       -0.84376        7.58709       -1.80568
| 95> *
| 96>
| 97>
| 98>                          ****END OF INPUT****
 Total Charge           Charge          ....    0
 Multiplicity           Mult            ....    1
 Number of Electrons    NEL             ....  444
Dispersion correction           -0.076675025
FINAL SINGLE POINT ENERGY     -2857.074430047866
Dispersion correction             ... done (  0.0 sec)
Dispersion correction           -0.076916239
FINAL SINGLE POINT ENERGY     -2857.078241946046
Dispersion correction             ... done (  0.0 sec)
Dispersion correction           -0.076876168
FINAL SINGLE POINT ENERGY     -2857.078033010525
Dispersion correction             ... done (  0.0 sec)
FINAL SINGLE POINT ENERGY     -2857.078472569143
FINAL SINGLE POINT ENERGY     -2857.078535441859
Dispersion correction             ... done (  0.0 sec)
Dispersion correction           -0.077089668
FINAL SINGLE POINT ENERGY     -2857.078554937048
Dispersion correction             ... done (  0.0 sec)
Dispersion correction           -0.077108841
FINAL SINGLE POINT ENERGY     -2857.078551933793
Dispersion correction             ... done (  0.0 sec)
                    ***********************HURRAY********************

CARTESIAN COORDINATES (ANGSTROEM)
---------------------------------
  C      3.348049   -1.945197    0.411939
  C      3.640504   -0.524308    0.447545
  C      3.220960    0.243573    1.526569
  C      2.645440   -2.536756    1.454535
  C      3.049323   -2.309442   -0.962978
  C      3.509092   -0.010215   -0.905602
  C      2.665182    1.564745    1.304400
  C      2.475154   -0.373102    2.605787
  C      1.613815   -3.518110    1.170211
  C      2.197093   -1.730330    2.574991
  C      2.064575   -3.248701   -1.233391
  C      3.148201   -1.110704   -1.775777
  C      2.946699    1.239476   -1.113743
  C      1.564228    1.762094    2.227538
  C      2.528323    2.033166    0.010923
  C      1.448449    0.566737    3.021877
  C      1.332602   -3.868776   -0.142917
  C      0.529240   -3.319069    2.116708
  C      0.885308   -2.207264    2.978869
  C      1.138353   -3.034283   -2.331401
  C      2.253191   -0.895055   -2.813301
  C      1.994743    1.475041   -2.179385
  C      0.456557    2.518705    1.854442
  C      1.401552    2.846268   -0.362966
  C      0.193641    0.122128    3.387149
  C     -0.044406   -4.043723   -0.569415
  C     -0.787115   -3.486129    1.708870
  C     -0.088776   -1.303429    3.382360
  C     -0.163387   -3.532029   -1.923053
  C      1.230545   -1.882740   -3.103185
  C      1.672801    0.422615   -3.020257
  C      0.992848    2.444482   -1.721259
  C      0.562426    3.315182    0.635543
  C     -0.896561    2.010441    2.167272
  C     -0.986460    0.842124    2.940666
  C     -1.080613   -3.860898    0.335826
  C     -1.806673   -2.550483    2.146074
  C     -1.459831   -1.477822    2.957852
  C     -1.315163   -2.864418   -2.314073
  C      0.026564   -1.176927   -3.502163
  C      0.303415    0.249528   -3.444567
  C     -0.338619    2.281067   -2.136225
  C     -1.509305    3.052124   -0.001576
  C     -1.916789    2.212991    1.118821
  C     -2.014518   -0.159266    2.705359
  C     -2.286933   -3.164270   -0.072896
  C     -2.737606   -2.358637    1.047763
  C     -2.402445   -2.676605   -1.368683
  C     -1.216386   -1.665161   -3.126840
  C     -0.662910    1.139907   -3.003284
  C     -1.517712    2.480284   -1.266050
  C     -2.834984    1.201359    0.863999
  C     -2.911808    0.010611    1.671201
  C     -3.286459   -1.106264    0.822257
  C     -2.980343   -1.365787   -1.602530
  C     -2.239902   -0.740786   -2.685291
  C     -1.961412    0.616980   -2.633385
  C     -2.437493    1.404676   -1.528168
  C     -3.155770    0.824460   -0.498458
  C     -3.421269   -0.600857   -0.530202
  H      1.013294    5.341324    4.303956
  C      0.001567    5.770357    4.344093
  H     -0.072386    6.401339    5.241798
  H      0.422582    7.433188    3.005091
  C     -0.279368    6.595265    3.105404
  O     -0.077575    5.813506    1.919053
  H     -0.725813    4.951611    4.440889
  C     -1.063800    5.008480    1.540565
  C     -0.603666    4.189529    0.323719
  O     -2.141229    4.938867    2.059800
  H     -1.307776    6.984603    3.103985
  C     -0.391873    5.194695   -0.816346
  H     -3.622927    6.426813   -2.617924
  O     -1.552766    5.768078   -1.110736
  H     -1.137309    6.303137   -3.062647
  O      0.652578    5.455676   -1.340703
  C     -1.541779    6.759422   -2.145792
  C     -2.957232    7.251623   -2.326558
  H     -2.990714    8.019048   -3.112807
  H     -3.341366    7.690971   -1.394933
  H     -0.851831    7.565948   -1.852031

 Multiplicity           Mult            ....    1
 Number of Electrons    NEL             ....  444
 Basis Dimension        Dim             .... 1044

ORBITAL ENERGIES
----------------

  NO   OCC          E(Eh)            E(eV)
   0   2.0000     -19.306684      -525.3616
   1   2.0000     -19.305659      -525.3337
   2   2.0000     -19.251305      -523.8546
   3   2.0000     -19.250158      -523.8234
   4   2.0000     -10.447613      -284.2940
   5   2.0000     -10.446844      -284.2731
   6   2.0000     -10.364636      -282.0361
   7   2.0000     -10.364002      -282.0188
   8   2.0000     -10.358443      -281.8676
   9   2.0000     -10.357755      -281.8488
  10   2.0000     -10.356807      -281.8231
  11   2.0000     -10.355118      -281.7771
  12   2.0000     -10.351902      -281.6896
  13   2.0000     -10.350964      -281.6640
  14   2.0000     -10.349834      -281.6333
  15   2.0000     -10.348827      -281.6059
  16   2.0000     -10.341173      -281.3976
  17   2.0000     -10.340901      -281.3902
  18   2.0000     -10.340686      -281.3844
  19   2.0000     -10.339909      -281.3632
  20   2.0000     -10.339905      -281.3631
  21   2.0000     -10.339873      -281.3623
  22   2.0000     -10.339791      -281.3600
  23   2.0000     -10.339768      -281.3594
  24   2.0000     -10.339750      -281.3589
  25   2.0000     -10.339670      -281.3567
  26   2.0000     -10.339660      -281.3565
  27   2.0000     -10.339571      -281.3540
  28   2.0000     -10.339468      -281.3512
  29   2.0000     -10.339451      -281.3508
  30   2.0000     -10.339335      -281.3476
  31   2.0000     -10.339289      -281.3464
  32   2.0000     -10.339276      -281.3460
  33   2.0000     -10.339248      -281.3452
  34   2.0000     -10.339230      -281.3448
  35   2.0000     -10.339187      -281.3436
  36   2.0000     -10.339179      -281.3434
  37   2.0000     -10.339111      -281.3415
  38   2.0000     -10.339101      -281.3412
  39   2.0000     -10.339060      -281.3401
  40   2.0000     -10.339007      -281.3387
  41   2.0000     -10.338949      -281.3371
  42   2.0000     -10.338944      -281.3370
  43   2.0000     -10.338915      -281.3362
  44   2.0000     -10.338744      -281.3315
  45   2.0000     -10.338736      -281.3313
  46   2.0000     -10.338651      -281.3290
  47   2.0000     -10.338604      -281.3277
  48   2.0000     -10.338433      -281.3231
  49   2.0000     -10.338410      -281.3224
  50   2.0000     -10.338331      -281.3203
  51   2.0000     -10.338247      -281.3180
  52   2.0000     -10.338217      -281.3172
  53   2.0000     -10.338208      -281.3169
  54   2.0000     -10.338132      -281.3149
  55   2.0000     -10.337980      -281.3107
  56   2.0000     -10.337034      -281.2850
  57   2.0000     -10.337001      -281.2841
  58   2.0000     -10.336993      -281.2839
  59   2.0000     -10.336759      -281.2775
  60   2.0000     -10.336674      -281.2752
  61   2.0000     -10.336513      -281.2708
  62   2.0000     -10.336252      -281.2637
  63   2.0000     -10.336230      -281.2631
  64   2.0000     -10.336172      -281.2615
  65   2.0000     -10.335394      -281.2404
  66   2.0000     -10.334082      -281.2047
  67   2.0000     -10.333568      -281.1907
  68   2.0000     -10.332910      -281.1728
  69   2.0000     -10.301740      -280.3246
  70   2.0000     -10.300360      -280.2871
  71   2.0000      -1.247339       -33.9418
  72   2.0000      -1.238267       -33.6950
  73   2.0000      -1.150417       -31.3044
  74   2.0000      -1.147902       -31.2360
  75   2.0000      -1.093488       -29.7553
  76   2.0000      -1.074865       -29.2486
  77   2.0000      -1.073027       -29.1986
  78   2.0000      -1.072992       -29.1976
  79   2.0000      -1.039330       -28.2816
  80   2.0000      -1.037259       -28.2252
  81   2.0000      -1.035251       -28.1706
  82   2.0000      -1.034707       -28.1558
  83   2.0000      -1.032091       -28.0846
  84   2.0000      -1.000813       -27.2335
  85   2.0000      -0.994448       -27.0603
  86   2.0000      -0.993223       -27.0270
  87   2.0000      -0.967781       -26.3346
  88   2.0000      -0.967282       -26.3211
  89   2.0000      -0.961293       -26.1581
  90   2.0000      -0.960985       -26.1497
  91   2.0000      -0.938612       -25.5409
  92   2.0000      -0.916439       -24.9376
  93   2.0000      -0.909271       -24.7425
  94   2.0000      -0.908600       -24.7243
  95   2.0000      -0.906843       -24.6764
  96   2.0000      -0.906082       -24.6557
  97   2.0000      -0.900955       -24.5162
  98   2.0000      -0.895797       -24.3759
  99   2.0000      -0.894180       -24.3319
 100   2.0000      -0.891366       -24.2553
 101   2.0000      -0.890582       -24.2340
 102   2.0000      -0.860919       -23.4268
 103   2.0000      -0.841552       -22.8998
 104   2.0000      -0.833004       -22.6672
 105   2.0000      -0.830564       -22.6008
 106   2.0000      -0.829441       -22.5702
 107   2.0000      -0.827725       -22.5235
 108   2.0000      -0.820847       -22.3364
 109   2.0000      -0.818549       -22.2739
 110   2.0000      -0.811435       -22.0803
 111   2.0000      -0.790032       -21.4979
 112   2.0000      -0.782993       -21.3063
 113   2.0000      -0.780938       -21.2504
 114   2.0000      -0.774654       -21.0794
 115   2.0000      -0.757327       -20.6079
 116   2.0000      -0.749972       -20.4078
 117   2.0000      -0.739689       -20.1280
 118   2.0000      -0.736783       -20.0489
 119   2.0000      -0.736237       -20.0340
 120   2.0000      -0.735571       -20.0159
 121   2.0000      -0.734076       -19.9752
 122   2.0000      -0.728546       -19.8247
 123   2.0000      -0.720465       -19.6048
 124   2.0000      -0.714572       -19.4445
 125   2.0000      -0.690630       -18.7930
 126   2.0000      -0.684155       -18.6168
 127   2.0000      -0.676253       -18.4018
 128   2.0000      -0.669450       -18.2167
 129   2.0000      -0.667953       -18.1759
 130   2.0000      -0.663834       -18.0639
 131   2.0000      -0.654351       -17.8058
 132   2.0000      -0.650070       -17.6893
 133   2.0000      -0.643934       -17.5223
 134   2.0000      -0.641383       -17.4529
 135   2.0000      -0.637977       -17.3602
 136   2.0000      -0.636327       -17.3153
 137   2.0000      -0.627516       -17.0756
 138   2.0000      -0.626231       -17.0406
 139   2.0000      -0.621149       -16.9023
 140   2.0000      -0.618800       -16.8384
 141   2.0000      -0.610326       -16.6078
 142   2.0000      -0.605044       -16.4641
 143   2.0000      -0.601801       -16.3758
 144   2.0000      -0.600123       -16.3302
 145   2.0000      -0.597187       -16.2503
 146   2.0000      -0.595637       -16.2081
 147   2.0000      -0.586544       -15.9607
 148   2.0000      -0.581699       -15.8288
 149   2.0000      -0.578067       -15.7300
 150   2.0000      -0.576186       -15.6788
 151   2.0000      -0.575151       -15.6507
 152   2.0000      -0.572128       -15.5684
 153   2.0000      -0.572096       -15.5675
 154   2.0000      -0.568192       -15.4613
 155   2.0000      -0.566538       -15.4163
 156   2.0000      -0.558734       -15.2039
 157   2.0000      -0.556114       -15.1326
 158   2.0000      -0.555190       -15.1075
 159   2.0000      -0.552127       -15.0241
 160   2.0000      -0.550876       -14.9901
 161   2.0000      -0.548824       -14.9343
 162   2.0000      -0.541595       -14.7376
 163   2.0000      -0.539613       -14.6836
 164   2.0000      -0.536071       -14.5872
 165   2.0000      -0.535817       -14.5803
 166   2.0000      -0.532792       -14.4980
 167   2.0000      -0.530928       -14.4473
 168   2.0000      -0.526402       -14.3241
 169   2.0000      -0.525952       -14.3119
 170   2.0000      -0.525456       -14.2984
 171   2.0000      -0.523658       -14.2495
 172   2.0000      -0.522212       -14.2101
 173   2.0000      -0.519871       -14.1464
 174   2.0000      -0.515844       -14.0368
 175   2.0000      -0.513638       -13.9768
 176   2.0000      -0.511928       -13.9303
 177   2.0000      -0.508206       -13.8290
 178   2.0000      -0.506170       -13.7736
 179   2.0000      -0.505198       -13.7471
 180   2.0000      -0.503704       -13.7065
 181   2.0000      -0.499352       -13.5881
 182   2.0000      -0.493520       -13.4294
 183   2.0000      -0.483240       -13.1496
 184   2.0000      -0.472258       -12.8508
 185   2.0000      -0.470901       -12.8139
 186   2.0000      -0.467076       -12.7098
 187   2.0000      -0.464745       -12.6463
 188   2.0000      -0.462437       -12.5836
 189   2.0000      -0.460730       -12.5371
 190   2.0000      -0.457770       -12.4566
 191   2.0000      -0.457533       -12.4501
 192   2.0000      -0.457074       -12.4376
 193   2.0000      -0.452430       -12.3112
 194   2.0000      -0.450762       -12.2659
 195   2.0000      -0.450481       -12.2582
 196   2.0000      -0.450209       -12.2508
 197   2.0000      -0.448245       -12.1974
 198   2.0000      -0.445916       -12.1340
 199   2.0000      -0.444355       -12.0915
 200   2.0000      -0.442903       -12.0520
 201   2.0000      -0.442417       -12.0388
 202   2.0000      -0.435579       -11.8527
 203   2.0000      -0.432931       -11.7807
 204   2.0000      -0.419841       -11.4244
 205   2.0000      -0.417560       -11.3624
 206   2.0000      -0.406830       -11.0704
 207   2.0000      -0.385991       -10.5033
 208   2.0000      -0.362598        -9.8668
 209   2.0000      -0.361035        -9.8243
 210   2.0000      -0.360752        -9.8166
 211   2.0000      -0.359732        -9.7888
 212   2.0000      -0.355426        -9.6716
 213   2.0000      -0.354027        -9.6336
 214   2.0000      -0.353545        -9.6205
 215   2.0000      -0.350822        -9.5464
 216   2.0000      -0.346977        -9.4417
 217   2.0000      -0.299598        -8.1525
 218   2.0000      -0.299274        -8.1437
 219   2.0000      -0.299125        -8.1396
 220   2.0000      -0.298345        -8.1184
 221   2.0000      -0.297925        -8.1070
 222   0.0000      -0.069361        -1.8874
 223   0.0000      -0.067846        -1.8462
 224   0.0000      -0.067317        -1.8318
 225   0.0000      -0.019263        -0.5242
 226   0.0000      -0.017441        -0.4746

LOEWDIN ATOMIC CHARGES
----------------------
   0 C :    0.000519
   1 C :   -0.001777
   2 C :   -0.000125
   3 C :   -0.001672
   4 C :   -0.000847
   5 C :   -0.000465
   6 C :   -0.002445
   7 C :   -0.000269
   8 C :   -0.000354
   9 C :   -0.000486
  10 C :   -0.000778
  11 C :   -0.001569
  12 C :    0.000423
  13 C :   -0.004350
  14 C :    0.001522
  15 C :   -0.003599
  16 C :   -0.000951
  17 C :   -0.001629
  18 C :    0.000236
  19 C :   -0.000428
  20 C :    0.000045
  21 C :    0.002045
  22 C :   -0.010496
  23 C :    0.002539
  24 C :   -0.001515
  25 C :   -0.000786
  26 C :   -0.000293
  27 C :   -0.001025
  28 C :   -0.001146
  29 C :    0.000350
  30 C :   -0.003135
  31 C :    0.009083
  32 C :    0.031241
  33 C :   -0.001256
  34 C :   -0.000566
  35 C :   -0.000408
  36 C :   -0.000942
  37 C :   -0.000066
  38 C :   -0.000697
  39 C :   -0.000074
  40 C :   -0.004361
  41 C :   -0.007204
  42 C :    0.037543
  43 C :    0.010749
  44 C :   -0.002772
  45 C :   -0.001350
  46 C :   -0.000275
  47 C :    0.000309
  48 C :   -0.001936
  49 C :    0.000214
  50 C :   -0.016819
  51 C :   -0.004133
  52 C :   -0.000003
  53 C :    0.000164
  54 C :   -0.002146
  55 C :   -0.001249
  56 C :   -0.001806
  57 C :   -0.003392
  58 C :   -0.000381
  59 C :    0.000426
  60 H :    0.035081
  61 C :   -0.077455
  62 H :    0.039607
  63 H :    0.030058
  64 C :    0.086781
  65 O :   -0.076914
  66 H :    0.036724
  67 C :    0.094291
  68 C :   -0.102477
  69 O :   -0.148904
  70 H :    0.026407
  71 C :    0.095071
  72 H :    0.036920
  73 O :   -0.079557
  74 H :    0.026891
  75 O :   -0.144159
  76 C :    0.087670
  77 C :   -0.071811
  78 H :    0.038532
  79 H :    0.036051
  80 H :    0.025762

  Mayer bond orders larger than 0.100000
B(  0-C ,  1-C ) :   1.1875 B(  0-C ,  3-C ) :   1.4718 B(  0-C ,  4-C ) :   1.1833
B(  1-C ,  2-C ) :   1.4734 B(  1-C ,  5-C ) :   1.1873 B(  2-C ,  6-C ) :   1.1916
B(  2-C ,  7-C ) :   1.1870 B(  3-C ,  8-C ) :   1.1844 B(  3-C ,  9-C ) :   1.1860
B(  4-C , 10-C ) :   1.4757 B(  4-C , 11-C ) :   1.1844 B(  5-C , 11-C ) :   1.1849
B(  5-C , 12-C ) :   1.4730 B(  6-C , 13-C ) :   1.1901 B(  6-C , 14-C ) :   1.4671
B(  7-C ,  9-C ) :   1.4805 B(  7-C , 15-C ) :   1.1761 B(  8-C , 16-C ) :   1.4770
B(  8-C , 17-C ) :   1.1819 B(  9-C , 18-C ) :   1.1793 B( 10-C , 16-C ) :   1.1831
B( 10-C , 19-C ) :   1.1851 B( 11-C , 20-C ) :   1.4770 B( 12-C , 14-C ) :   1.1712
B( 12-C , 21-C ) :   1.1820 B( 13-C , 15-C ) :   1.1741 B( 13-C , 22-C ) :   1.4775
B( 14-C , 23-C ) :   1.1891 B( 15-C , 24-C ) :   1.4731 B( 16-C , 25-C ) :   1.1829
B( 17-C , 18-C ) :   1.1883 B( 17-C , 26-C ) :   1.4723 B( 18-C , 27-C ) :   1.4781
B( 19-C , 28-C ) :   1.1835 B( 19-C , 29-C ) :   1.4741 B( 20-C , 29-C ) :   1.1836
B( 20-C , 30-C ) :   1.1841 B( 21-C , 30-C ) :   1.4713 B( 21-C , 31-C ) :   1.1926
B( 22-C , 32-C ) :   1.1405 B( 22-C , 33-C ) :   1.1697 B( 23-C , 31-C ) :   1.1409
B( 23-C , 32-C ) :   1.5332 B( 24-C , 27-C ) :   1.1794 B( 24-C , 34-C ) :   1.1846
B( 25-C , 28-C ) :   1.1842 B( 25-C , 35-C ) :   1.4762 B( 26-C , 35-C ) :   1.1820
B( 26-C , 36-C ) :   1.1880 B( 27-C , 37-C ) :   1.1846 B( 28-C , 38-C ) :   1.4760
B( 29-C , 39-C ) :   1.1838 B( 30-C , 40-C ) :   1.1801 B( 31-C , 41-C ) :   1.4756
B( 32-C , 42-C ) :   0.1629 B( 32-C , 68-C ) :   0.9387 B( 33-C , 34-C ) :   1.4742
B( 33-C , 43-C ) :   1.1607 B( 34-C , 44-C ) :   1.1796 B( 35-C , 45-C ) :   1.1842
B( 36-C , 37-C ) :   1.4763 B( 36-C , 46-C ) :   1.1811 B( 37-C , 44-C ) :   1.1823
B( 38-C , 47-C ) :   1.1846 B( 38-C , 48-C ) :   1.1834 B( 39-C , 40-C ) :   1.1861
B( 39-C , 48-C ) :   1.4756 B( 40-C , 49-C ) :   1.4733 B( 41-C , 49-C ) :   1.1852
B( 41-C , 50-C ) :   1.1471 B( 42-C , 43-C ) :   1.1527 B( 42-C , 50-C ) :   1.5129
B( 42-C , 68-C ) :   0.9398 B( 43-C , 51-C ) :   1.4847 B( 44-C , 52-C ) :   1.4776
B( 45-C , 46-C ) :   1.1852 B( 45-C , 47-C ) :   1.4726 B( 46-C , 53-C ) :   1.4800
B( 47-C , 54-C ) :   1.1855 B( 48-C , 55-C ) :   1.1868 B( 49-C , 56-C ) :   1.1853
B( 50-C , 57-C ) :   1.1837 B( 51-C , 52-C ) :   1.1693 B( 51-C , 58-C ) :   1.1887
B( 52-C , 53-C ) :   1.1768 B( 53-C , 59-C ) :   1.1851 B( 54-C , 55-C ) :   1.1891
B( 54-C , 59-C ) :   1.4732 B( 55-C , 56-C ) :   1.4694 B( 56-C , 57-C ) :   1.1740
B( 57-C , 58-C ) :   1.4680 B( 58-C , 59-C ) :   1.1937 B( 60-H , 61-C ) :   0.9684
B( 61-C , 62-H ) :   0.9676 B( 61-C , 64-C ) :   1.1038 B( 61-C , 66-H ) :   0.9681
B( 63-H , 64-C ) :   0.9628 B( 64-C , 65-O ) :   0.8738 B( 64-C , 70-H ) :   0.9531
B( 65-O , 67-C ) :   1.2468 B( 65-O , 68-C ) :  -0.1003 B( 67-C , 68-C ) :   0.8704
B( 67-C , 69-O ) :   2.1495 B( 68-C , 71-C ) :   0.8830 B( 71-C , 73-O ) :   1.2439
B( 71-C , 75-O ) :   2.1470 B( 72-H , 77-C ) :   0.9712 B( 73-O , 76-C ) :   0.8698
B( 74-H , 76-C ) :   0.9610 B( 76-C , 77-C ) :   1.0886 B( 76-C , 80-H ) :   0.9618
B( 77-C , 78-H ) :   0.9646 B( 77-C , 79-H ) :   0.9709

Dispersion correction           -0.077115819
FINAL SINGLE POINT ENERGY     -2857.078550740302

DIPOLE MOMENT
-------------

Method             : SCF
Type of density    : Electron Density
Multiplicity       :   1
Irrep              :   0
Energy             : -2857.0014349216289702 Eh
Relativity type    :
Basis              : AO
                                X                 Y                 Z
Electronic contribution:     10.960067079     -56.172458581      -6.817476585
Nuclear contribution   :    -11.174434484      57.627963942       7.004473160
                        -----------------------------------------
Total Dipole Moment    :     -0.214367405       1.455505361       0.186996575
                        -----------------------------------------
Magnitude (a.u.)       :      1.483043141
Magnitude (Debye)      :      3.769596090

Rotational constants in cm-1:             0.002428             0.001443             0.001373
Rotational constants in MHz :            72.796164            43.274744            41.174552

                             ****ORCA TERMINATED NORMALLY****
TOTAL RUN TIME: 0 days 0 hours 19 minutes 35 seconds 634 msec
