                         Program Version 6.0.1  -  RELEASE   -
|  1> ! B3LYP def2-SVP OPT TightSCF D3BJ
|  2>
|  3>
|  4> %maxcore 3000
|  5>
|  6> %pal
|  7> nprocs 40
|  8> end
|  9>
| 10> * xyz 0 1
| 11> O        2.7564475502     -0.2664297050      1.3591413044
| 12> O        2.7296068280     -0.7589595439     -0.7504229221
| 13> N        2.2031272037     -0.3232785451      0.2672795625
| 14> N       -3.0853383358      1.5413614751     -0.1222935851
| 15> C        0.8325141965      0.1602060429      0.1709997450
| 16> C       -1.8087790496      1.0910541413     -0.0130380810
| 17> C        0.1944106640      0.6632161039      1.3106062753
| 18> C        0.1679591560      0.1164832554     -1.0604374592
| 19> C       -1.1096581141      1.1224523474      1.2206754325
| 20> C       -1.1352444681      0.5763192999     -1.1516521164
| 21> H        0.7403677541      0.6825464060      2.2533561292
| 22> H        0.6926365008     -0.2797215205     -1.9293424762
| 23> H       -1.6115196202      1.5151020222      2.1088330448
| 24> H       -1.6632690911      0.5504613502     -2.1065318971
| 25> H       -3.5743745658      1.8956685723      0.6877048122
| 26> H       -3.5721920508      1.4581202729     -1.0128398639
| 27> O       -3.0265105292      4.4658345019     -0.8176385921
| 28> H       -2.0692194678      4.3512938082     -0.7502327127
| 29> H       -3.3964911645      3.6045202776     -0.5816813289
| 30> *
| 31>
| 32>
| 33>                          ****END OF INPUT****
 Total Charge           Charge          ....    0
 Multiplicity           Mult            ....    1
 Number of Electrons    NEL             ....   82
 Basis Dimension        Dim             ....  194

ORBITAL ENERGIES
----------------

  NO   OCC          E(Eh)            E(eV)
   0   2.0000     -19.148828      -521.0661
   1   2.0000     -19.148668      -521.0617
   2   2.0000     -19.116345      -520.1822
   3   2.0000     -14.547835      -395.8667
   4   2.0000     -14.383535      -391.3959
   5   2.0000     -10.269639      -279.4511
   6   2.0000     -10.238101      -278.5929
   7   2.0000     -10.220377      -278.1106
   8   2.0000     -10.220162      -278.1047
   9   2.0000     -10.214767      -277.9579
  10   2.0000     -10.214239      -277.9436
  11   2.0000      -1.208164       -32.8758
  12   2.0000      -1.032972       -28.1086
  13   2.0000      -0.978461       -26.6253
  14   2.0000      -0.957558       -26.0565
  15   2.0000      -0.874000       -23.7827
  16   2.0000      -0.788885       -21.4667
  17   2.0000      -0.769969       -20.9519
  18   2.0000      -0.690811       -18.7979
  19   2.0000      -0.645720       -17.5709
  20   2.0000      -0.599583       -16.3155
  21   2.0000      -0.563572       -15.3356
  22   2.0000      -0.561785       -15.2869
  23   2.0000      -0.536331       -14.5943
  24   2.0000      -0.529257       -14.4018
  25   2.0000      -0.514512       -14.0006
  26   2.0000      -0.497724       -13.5438
  27   2.0000      -0.466686       -12.6992
  28   2.0000      -0.463497       -12.6124
  29   2.0000      -0.450527       -12.2595
  30   2.0000      -0.430119       -11.7041
  31   2.0000      -0.425957       -11.5909
  32   2.0000      -0.373003       -10.1499
  33   2.0000      -0.369312       -10.0495
  34   2.0000      -0.344717        -9.3802
  35   2.0000      -0.301497        -8.2042
  36   2.0000      -0.300929        -8.1887
  37   2.0000      -0.291487        -7.9318
  38   2.0000      -0.284611        -7.7447
  39   2.0000      -0.281922        -7.6715
  40   2.0000      -0.241027        -6.5587
  41   0.0000      -0.079364        -2.1596
  42   0.0000      -0.034077        -0.9273
  43   0.0000       0.007716         0.2100
  44   0.0000       0.014734         0.4009
  45   0.0000       0.056928         1.5491

MULLIKEN ATOMIC CHARGES
-----------------------
   0 O :   -0.254392
   1 O :   -0.254772
   2 N :    0.237199
   3 N :   -0.062928
   4 C :    0.161380
   5 C :    0.071709
   6 C :   -0.015091
   7 C :   -0.014250
   8 C :   -0.029223
   9 C :   -0.026643
  10 H :    0.007689
  11 H :    0.007655
  12 H :   -0.026540
  13 H :   -0.027012
  14 H :    0.130263
  15 H :    0.134505
  16 O :   -0.304175
  17 H :    0.154057
  18 H :    0.110568
Sum of atomic charges:    0.0000000

LOEWDIN ATOMIC CHARGES
----------------------
   0 O :   -0.219863
   1 O :   -0.220229
   2 N :    0.277971
   3 N :    0.012827
   4 C :   -0.057746
   5 C :    0.037712
   6 C :    0.012575
   7 C :    0.012245
   8 C :   -0.062860
   9 C :   -0.060882
  10 H :    0.042735
  11 H :    0.042776
  12 H :    0.028340
  13 H :    0.027786
  14 H :    0.079513
  15 H :    0.084862
  16 O :   -0.150746
  17 H :    0.074685
  18 H :    0.038299

  Mayer bond orders larger than 0.100000
B(  0-O ,  1-O ) :   0.2688 B(  0-O ,  2-N ) :   1.5321 B(  1-O ,  2-N ) :   1.5316
B(  2-N ,  4-C ) :   0.8896 B(  3-N ,  5-C ) :   1.2641 B(  3-N , 14-H ) :   0.9340
B(  3-N , 15-H ) :   0.9328 B(  4-C ,  6-C ) :   1.3483 B(  4-C ,  7-C ) :   1.3442
B(  5-C ,  8-C ) :   1.2825 B(  5-C ,  9-C ) :   1.2813 B(  6-C ,  8-C ) :   1.3894
B(  6-C , 10-H ) :   0.9807 B(  7-C ,  9-C ) :   1.3942 B(  7-C , 11-H ) :   0.9813
B(  8-C , 12-H ) :   0.9874 B(  9-C , 13-H ) :   0.9859 B( 16-O , 17-H ) :   1.0055
B( 16-O , 18-H ) :   0.9922

Dispersion correction           -0.031935838
FINAL SINGLE POINT ENERGY      -567.842120864770
Dispersion correction             ... done (  0.1 sec)
Dispersion correction           -0.031816457
FINAL SINGLE POINT ENERGY      -567.842862880956
Dispersion correction             ... done (  0.1 sec)
Dispersion correction           -0.031664396
FINAL SINGLE POINT ENERGY      -567.842058748968
Dispersion correction             ... done (  0.1 sec)
FINAL SINGLE POINT ENERGY      -567.843273557941
FINAL SINGLE POINT ENERGY      -567.843384894940
FINAL SINGLE POINT ENERGY      -567.843521284802
FINAL SINGLE POINT ENERGY      -567.844071998601
FINAL SINGLE POINT ENERGY      -567.844523050716
FINAL SINGLE POINT ENERGY      -567.845209142756
FINAL SINGLE POINT ENERGY      -567.845914401394
FINAL SINGLE POINT ENERGY      -567.849730079982
FINAL SINGLE POINT ENERGY      -567.849848039904
FINAL SINGLE POINT ENERGY      -567.849919223212
FINAL SINGLE POINT ENERGY      -567.850114475725
FINAL SINGLE POINT ENERGY      -567.850259604132
FINAL SINGLE POINT ENERGY      -567.850377829467
FINAL SINGLE POINT ENERGY      -567.850500494821
Dispersion correction           -0.032943211
FINAL SINGLE POINT ENERGY      -567.850651475768
Dispersion correction             ... done (  0.1 sec)
Dispersion correction           -0.032862313
FINAL SINGLE POINT ENERGY      -567.850782706713
Dispersion correction             ... done (  0.1 sec)

CARTESIAN COORDINATES (ANGSTROEM)
---------------------------------
  O      2.656496   -0.472256    1.346020
  O      2.725908   -0.326600   -0.813952
  N      2.155844   -0.210661    0.261414
  N     -3.155340    1.700367    0.212677
  C      0.772926    0.276737    0.249752
  C     -1.860493    1.193073    0.227333
  C      0.088168    0.419168    1.457763
  C      0.166310    0.592266   -0.969303
  C     -1.224050    0.876162    1.443810
  C     -1.143235    1.052033   -0.980903
  H      0.594643    0.163919    2.387945
  H      0.736786    0.474168   -1.890104
  H     -1.769806    0.986854    2.384531
  H     -1.622201    1.349218   -1.915279
  H     -3.688650    1.558953    1.070356
  H     -3.703097    1.483398   -0.615983
  O     -2.732408    3.672053   -1.910305
  H     -1.804342    3.941830   -1.874923
  H     -2.928986    3.435569   -0.988363

Dispersion correction           -0.032753880
FINAL SINGLE POINT ENERGY      -567.850919844193
Dispersion correction             ... done (  0.1 sec)
                             ****ORCA TERMINATED NORMALLY****
TOTAL RUN TIME: 0 days 0 hours 11 minutes 28 seconds 258 msec
