                         Program Version 6.0.1  -  RELEASE   -
|  1> ! wB97X-D3 def2-SVP OPT NormalSCF
|  2>
|  3> %pal
|  4> nprocs 28
|  5> end
|  6>
|  7> %maxcore 3500
|  8>
|  9> %scf
| 10>  SmearTemp 500
| 11> end
| 12>
| 13>
| 14> * xyz -1 2
| 15> O          0.00000        0.00000        0.00000
| 16> O          1.33000        0.00000        0.00000
| 17> *
| 18>
| 19>                          ****END OF INPUT****
 Total Charge           Charge          ....   -1
 Multiplicity           Mult            ....    2
 Number of Electrons    NEL             ....   17
Dispersion correction           -0.000000341
FINAL SINGLE POINT ENERGY      -150.137678594863
Dispersion correction             ... done (  0.0 sec)
Dispersion correction           -0.000000323
FINAL SINGLE POINT ENERGY      -150.137783156209
Dispersion correction             ... done (  0.0 sec)
Dispersion correction           -0.000000319
FINAL SINGLE POINT ENERGY      -150.137785038629
Dispersion correction             ... done (  0.0 sec)
                    ***********************HURRAY********************

CARTESIAN COORDINATES (ANGSTROEM)
---------------------------------
  O      0.005337    0.000000    0.000000
  O      1.324663    0.000000    0.000000

 Multiplicity           Mult            ....    2
 Number of Electrons    NEL             ....   17
 Basis Dimension        Dim             ....   28

ORBITAL ENERGIES
----------------
                 SPIN UP ORBITALS
  NO   OCC          E(Eh)            E(eV)
   0   1.0000     -18.917528      -514.7721
   1   1.0000     -18.917223      -514.7638
   2   1.0000      -0.871562       -23.7164
   3   1.0000      -0.510117       -13.8810
   4   1.0000      -0.203413        -5.5351
   5   1.0000      -0.195387        -5.3168
   6   1.0000      -0.164920        -4.4877
   7   1.0000       0.000399         0.0109
   8   1.0000       0.042214         1.1487
   9   0.0000       0.617927        16.8146
  10   0.0000       1.207639        32.8615
  11   0.0000       1.279240        34.8099
  12   0.0000       1.302375        35.4394
  13   0.0000       1.330508        36.2050

                 SPIN DOWN ORBITALS
  NO   OCC          E(Eh)            E(eV)
   0   1.0000     -18.906185      -514.4634
   1   1.0000     -18.905962      -514.4574
   2   1.0000      -0.840851       -22.8807
   3   1.0000      -0.465157       -12.6576
   4   1.0000      -0.176071        -4.7911
   5   1.0000      -0.150760        -4.1024
   6   1.0000      -0.111254        -3.0274
   7   1.0000       0.059838         1.6283
   8   0.0000       0.358677         9.7601
   9   0.0000       0.641431        17.4542
  10   0.0000       1.222309        33.2607
  11   0.0000       1.292102        35.1599
  12   0.0000       1.340994        36.4903

LOEWDIN ATOMIC CHARGES AND SPIN POPULATIONS
-------------------------------------------
   0 O :   -0.500000    0.500000
   1 O :   -0.500000    0.500000

  Mayer bond orders larger than 0.100000
B(  0-O ,  1-O ) :   1.3925

Dispersion correction           -0.000000319
FINAL SINGLE POINT ENERGY      -150.137786938789

DIPOLE MOMENT
-------------

Method             : SCF
Type of density    : Electron Density
Multiplicity       :   2
Irrep              :   0
Energy             :  -150.1377866195400088 Eh
Relativity type    :
Basis              : AO
                                X                 Y                 Z
Electronic contribution:      0.000000009       0.000000002      -0.000000000
Nuclear contribution   :      0.000000000       0.000000000       0.000000000
                        -----------------------------------------
Total Dipole Moment    :      0.000000009       0.000000002      -0.000000000
                        -----------------------------------------
Magnitude (a.u.)       :      0.000000009
Magnitude (Debye)      :      0.000000023

Rotational constants in cm-1:             0.000000             1.210680             1.210680
Rotational constants in MHz :             0.000000         36295.278616         36295.278616

                             ****ORCA TERMINATED NORMALLY****
TOTAL RUN TIME: 0 days 0 hours 0 minutes 24 seconds 372 msec
