                         Program Version 6.0.1  -  RELEASE   -
|  1> ! wB97X-D3 def2-SVP OPT NormalSCF
|  2>
|  3> %pal
|  4> nprocs 28
|  5> end
|  6>
|  7> %maxcore 3500
|  8>
|  9> %scf
| 10>  SmearTemp 500
| 11> end
| 12>
| 13>
| 14> * xyz -1 2
| 15> C 3.36385 -1.99584 0.386459
| 16> C 3.66055 -0.572846 0.435208
| 17> C 3.24083 0.192357 1.52993
| 18> C 2.65579 -2.60009 1.43241
| 19> C 3.06154 -2.34719 -0.994117
| 20> C 3.52891 -0.044316 -0.915537
| 21> C 2.68634 1.51935 1.31925
| 22> C 2.49219 -0.434311 2.60563
| 23> C 1.61945 -3.57839 1.13966
| 24> C 2.20962 -1.80097 2.56343
| 25> C 2.06732 -3.28952 -1.27468
| 26> C 3.1625 -1.13814 -1.79683
| 27> C 2.96525 1.21888 -1.11221
| 28> C 1.58281 1.70918 2.24615
| 29> C 2.55208 2.00834 0.021757
| 30> C 1.46576 0.505387 3.03265
| 31> C 1.33369 -3.91928 -0.186634
| 32> C 0.534464 -3.38568 2.09143
| 33> C 0.894996 -2.28044 2.96586
| 34> C 1.13794 -3.06222 -2.37168
| 35> C 2.2599 -0.909713 -2.83933
| 36> C 2.00935 1.46506 -2.17527
| 37> C 0.467253 2.47722 1.87801
| 38> C 1.41956 2.82564 -0.343398
| 39> C 0.201739 0.05572 3.3997
| 40> C -0.047186 -4.08725 -0.613747
| 41> C -0.793056 -3.54695 1.68045
| 42> C -0.084585 -1.37201 3.38264
| 43> C -0.16724 -3.56163 -1.96546
| 44> C 1.23252 -1.89436 -3.1382
| 45> C 1.68026 0.413826 -3.03167
| 46> C 1.00726 2.43337 -1.70273
| 47> C 0.575612 3.29583 0.669034
| 48> C -0.886608 1.96651 2.18929
| 49> C -0.98028 0.783077 2.96108
| 50> C -1.08994 -3.90896 0.301612
| 51> C -1.81255 -2.61139 2.1291
| 52> C -1.45958 -1.53957 2.95751
| 53> C -1.32709 -2.88258 -2.35126
| 54> C 0.026716 -1.18089 -3.52921
| 55> C 0.306923 0.247335 -3.45636
| 56> C -0.337138 2.27445 -2.12066
| 57> C -1.50375 3.04089 0.03062
| 58> C -1.90782 2.18383 1.14331
| 59> C -2.01309 -0.214793 2.71689
| 60> C -2.29806 -3.2046 -0.099515
| 61> C -2.74662 -2.40642 1.03165
| 62> C -2.41515 -2.70095 -1.40056
| 63> C -1.22687 -1.67322 -3.15453
| 64> C -0.665071 1.14123 -3.00315
| 65> C -1.51406 2.47096 -1.24894
| 66> C -2.83731 1.16909 0.878878
| 67> C -2.91733 -0.030678 1.67699
| 68> C -3.29656 -1.14096 0.816219
| 69> C -2.99147 -1.38385 -1.62202
| 70> C -2.2503 -0.749007 -2.70221
| 71> C -1.96738 0.618334 -2.63686
| 72> C -2.44353 1.40099 -1.52375
| 73> C -3.16361 0.805672 -0.48959
| 74> C -3.43391 -0.621621 -0.534234
| 75> H 1.01079 5.70594 4.39439
| 76> C -0.025016 6.07921 4.37886
| 77> H -0.14197 6.8071 5.19798
| 78> H 0.317939 7.60819 2.86708
| 79> C -0.341423 6.74847 3.05268
| 80> O -0.093766 5.86121 1.93801
| 81> H -0.708809 5.23855 4.56885
| 82> C -1.06594 5.01385 1.58305
| 83> C -0.593688 4.18199 0.364946
| 84> O -2.14368 4.9339 2.10853
| 85> H -1.38979 7.07988 3.01259
| 86> C -0.375757 5.20146 -0.774825
| 87> H -3.62271 6.46433 -2.59559
| 88> O -1.546 5.77178 -1.08241
| 89> H -1.12736 6.33894 -3.0339
| 90> O 0.675863 5.47844 -1.28485
| 91> C -1.53396 6.78416 -2.1116
| 92> C -2.95187 7.28287 -2.29224
| 93> H -2.97708 8.05869 -3.07354
| 94> H -3.33996 7.71875 -1.3586
| 95> H -0.84376 7.58709 -1.80568
| 96> O -1.19457 7.94306 -5.16555
| 97> O -1.65527 8.97487 -4.78019
| 98> *
| 99>
|100>                          ****END OF INPUT****
 Total Charge           Charge          ....   -1
 Multiplicity           Mult            ....    2
 Number of Electrons    NEL             ....  461
Dispersion correction           -0.078335658
FINAL SINGLE POINT ENERGY     -3007.316293823348
Dispersion correction             ... done (  0.0 sec)
Dispersion correction           -0.078537674
FINAL SINGLE POINT ENERGY     -3007.321256571734
Dispersion correction             ... done (  0.0 sec)
Dispersion correction           -0.078678525
FINAL SINGLE POINT ENERGY     -3007.322203246457
Dispersion correction             ... done (  0.0 sec)
FINAL SINGLE POINT ENERGY     -3007.322306835351
FINAL SINGLE POINT ENERGY     -3007.322827600568
FINAL SINGLE POINT ENERGY     -3007.322927900168
FINAL SINGLE POINT ENERGY     -3007.323049762821
FINAL SINGLE POINT ENERGY     -3007.323084128311
FINAL SINGLE POINT ENERGY     -3007.323106660373
FINAL SINGLE POINT ENERGY     -3007.323123482126
FINAL SINGLE POINT ENERGY     -3007.323462893468
FINAL SINGLE POINT ENERGY     -3007.323468694106
FINAL SINGLE POINT ENERGY     -3007.323475366550
FINAL SINGLE POINT ENERGY     -3007.323481109264
FINAL SINGLE POINT ENERGY     -3007.323486540577
FINAL SINGLE POINT ENERGY     -3007.323495335079
FINAL SINGLE POINT ENERGY     -3007.323500998730
Dispersion correction             ... done (  0.0 sec)
Dispersion correction           -0.079624926
FINAL SINGLE POINT ENERGY     -3007.323503155796
Dispersion correction             ... done (  0.0 sec)
Dispersion correction           -0.079615694
FINAL SINGLE POINT ENERGY     -3007.323502749762
Dispersion correction             ... done (  0.0 sec)
                    ***********************HURRAY********************

CARTESIAN COORDINATES (ANGSTROEM)
---------------------------------
  C      3.350961   -1.819620    0.185183
  C      3.633325   -0.391990    0.222283
  C      3.279416    0.352055    1.345591
  C      2.719272   -2.431850    1.268784
  C      2.966732   -2.157485   -1.167371
  C      3.432028    0.145358   -1.107899
  C      2.714056    1.682269    1.181490
  C      2.621491   -0.282969    2.464745
  C      1.676148   -3.415114    1.027353
  C      2.345427   -1.656435    2.429757
  C      1.966993   -3.098633   -1.399287
  C      3.008762   -0.936094   -1.961214
  C      2.853276    1.413603   -1.261360
  C      1.678584    1.855517    2.168732
  C      2.502696    2.173653   -0.102189
  C      1.616930    0.639284    2.946844
  C      1.312505   -3.742871   -0.271122
  C      0.652859   -3.236197    2.044613
  C      1.066888   -2.137781    2.901253
  C      0.977741   -2.877388   -2.431506
  C      2.044112   -0.711591   -2.939649
  C      1.834693    1.657153   -2.254533
  C      0.537896    2.613301    1.882940
  C      1.350300    2.989789   -0.381675
  C      0.382316    0.188287    3.384412
  C     -0.088692   -3.914537   -0.613022
  C     -0.685594   -3.400650    1.717930
  C      0.107992   -1.243605    3.381244
  C     -0.288811   -3.377825   -1.949984
  C      1.018363   -1.696260   -3.191364
  C      1.452842    0.614794   -3.090091
  C      0.855011    2.620539   -1.722063
  C      0.576568    3.436228    0.677112
  C     -0.783658    2.114739    2.277665
  C     -0.822873    0.913141    3.042946
  C     -1.065297   -3.751038    0.359535
  C     -1.682952   -2.474502    2.230244
  C     -1.279678   -1.413604    3.041468
  C     -1.473454   -2.704974   -2.248780
  C     -0.207434   -0.987126   -3.486238
  C      0.065002    0.444883   -3.429589
  C     -0.500841    2.455487   -2.053309
  C     -1.537261    3.179395    0.163799
  C     -1.860079    2.319141    1.298258
  C     -1.848161   -0.084825    2.842536
  C     -2.299656   -3.048080    0.047310
  C     -2.682705   -2.275643    1.204877
  C     -2.492755   -2.538663   -1.239009
  C     -1.428512   -1.482895   -3.041000
  C     -0.882357    1.325239   -2.918139
  C     -1.620307    2.625476   -1.104243
  C     -2.793925    1.304470    1.078043
  C     -2.816672    0.092899    1.866611
  C     -3.252480   -1.004571    1.035696
  C     -3.081452   -1.218045   -1.412209
  C     -2.428527   -0.574813   -2.533747
  C     -2.151561    0.797522   -2.480821
  C     -2.552063    1.553733   -1.332992
  C     -3.201811    0.954831   -0.260175
  C     -3.456920   -0.476609   -0.294478
  H      0.504503    4.540236    4.740504
  C     -0.366398    5.210042    4.693944
  H     -0.472936    5.718498    5.664046
  H      0.693621    6.854357    3.741050
  C     -0.195537    6.228719    3.584106
  O      0.034365    5.575012    2.335162
  H     -1.263205    4.597636    4.522812
  C     -1.030214    5.122544    1.678195
  C     -0.607005    4.309815    0.444456
  O     -2.169233    5.349094    1.981068
  H     -1.079800    6.877312    3.495090
  C     -0.423633    5.333037   -0.683555
  H     -3.224777    5.550198   -3.353588
  O     -1.575620    5.581749   -1.297769
  H     -0.778578    6.115810   -3.120464
  O      0.610686    5.882678   -0.944164
  C     -1.527612    6.482918   -2.401256
  C     -2.910391    6.544499   -3.005620
  H     -2.915986    7.234640   -3.861836
  H     -3.643957    6.898138   -2.266930
  H     -1.181829    7.468362   -2.048691
  O     -0.062878    7.305179   -5.412585
  O     -0.590239    8.335647   -5.137713

 Multiplicity           Mult            ....    2
 Number of Electrons    NEL             ....  461
 Basis Dimension        Dim             .... 1072

ORBITAL ENERGIES
----------------
                 SPIN UP ORBITALS
  NO   OCC          E(Eh)            E(eV)
   0   1.0000     -19.347231      -526.4649
   1   1.0000     -19.346410      -526.4426
   2   1.0000     -19.221378      -523.0403
   3   1.0000     -19.220770      -523.0237
   4   1.0000     -19.164394      -521.4897
   5   1.0000     -19.163822      -521.4741
   6   1.0000     -10.360411      -281.9211
   7   1.0000     -10.360155      -281.9141
   8   1.0000     -10.287831      -279.9461
   9   1.0000     -10.287077      -279.9256
  10   1.0000     -10.262868      -279.2668
  11   1.0000     -10.250007      -278.9169
  12   1.0000     -10.249850      -278.9126
  13   1.0000     -10.246804      -278.8297
  14   1.0000     -10.246087      -278.8102
  15   1.0000     -10.239448      -278.6295
  16   1.0000     -10.238858      -278.6135
  17   1.0000     -10.238450      -278.6024
  18   1.0000     -10.234932      -278.5067
  19   1.0000     -10.234024      -278.4819
  20   1.0000     -10.231930      -278.4250
  21   1.0000     -10.231500      -278.4133
  22   1.0000     -10.231451      -278.4119
  23   1.0000     -10.231283      -278.4074
  24   1.0000     -10.231175      -278.4044
  25   1.0000     -10.231098      -278.4023
  26   1.0000     -10.230981      -278.3992
  27   1.0000     -10.230952      -278.3984
  28   1.0000     -10.230680      -278.3909
  29   1.0000     -10.229166      -278.3498
  30   1.0000     -10.228993      -278.3450
  31   1.0000     -10.228610      -278.3346
  32   1.0000     -10.228503      -278.3317
  33   1.0000     -10.228064      -278.3198
  34   1.0000     -10.227810      -278.3129
  35   1.0000     -10.227797      -278.3125
  36   1.0000     -10.226964      -278.2898
  37   1.0000     -10.226944      -278.2893
  38   1.0000     -10.226858      -278.2870
  39   1.0000     -10.226627      -278.2807
  40   1.0000     -10.226431      -278.2753
  41   1.0000     -10.226394      -278.2743
  42   1.0000     -10.226169      -278.2682
  43   1.0000     -10.225992      -278.2634
  44   1.0000     -10.225911      -278.2612
  45   1.0000     -10.225455      -278.2488
  46   1.0000     -10.225312      -278.2449
  47   1.0000     -10.224947      -278.2349
  48   1.0000     -10.224818      -278.2314
  49   1.0000     -10.224594      -278.2254
  50   1.0000     -10.224571      -278.2247
  51   1.0000     -10.224380      -278.2195
  52   1.0000     -10.224209      -278.2149
  53   1.0000     -10.223937      -278.2075
  54   1.0000     -10.223830      -278.2046
  55   1.0000     -10.223737      -278.2020
  56   1.0000     -10.223659      -278.1999
  57   1.0000     -10.223056      -278.1835
  58   1.0000     -10.222620      -278.1716
  59   1.0000     -10.222284      -278.1625
  60   1.0000     -10.222190      -278.1599
  61   1.0000     -10.222080      -278.1569
  62   1.0000     -10.222055      -278.1563
  63   1.0000     -10.221915      -278.1525
  64   1.0000     -10.221835      -278.1503
  65   1.0000     -10.221720      -278.1471
  66   1.0000     -10.221672      -278.1458
  67   1.0000     -10.221490      -278.1409
  68   1.0000     -10.220731      -278.1202
  69   1.0000     -10.220680      -278.1188
  70   1.0000     -10.219906      -278.0978
  71   1.0000     -10.219813      -278.0952
  72   1.0000     -10.218796      -278.0676
  73   1.0000      -1.385896       -37.7121
  74   1.0000      -1.161609       -31.6090
  75   1.0000      -1.154626       -31.4190
  76   1.0000      -1.063378       -28.9360
  77   1.0000      -1.061565       -28.8866
  78   1.0000      -0.980566       -26.6826
  79   1.0000      -0.963680       -26.2231
  80   1.0000      -0.960337       -26.1321
  81   1.0000      -0.958738       -26.0886
  82   1.0000      -0.930652       -25.3243
  83   1.0000      -0.925236       -25.1770
  84   1.0000      -0.921259       -25.0687
  85   1.0000      -0.920482       -25.0476
  86   1.0000      -0.919159       -25.0116
  87   1.0000      -0.892126       -24.2760
  88   1.0000      -0.883535       -24.0422
  89   1.0000      -0.882121       -24.0037
  90   1.0000      -0.879203       -23.9243
  91   1.0000      -0.856739       -23.3130
  92   1.0000      -0.855013       -23.2661
  93   1.0000      -0.847987       -23.0749
  94   1.0000      -0.846381       -23.0312
  95   1.0000      -0.835932       -22.7469
  96   1.0000      -0.825828       -22.4719
  97   1.0000      -0.810415       -22.0525
  98   1.0000      -0.804358       -21.8877
  99   1.0000      -0.796900       -21.6848
 100   1.0000      -0.796071       -21.6622
 101   1.0000      -0.793641       -21.5961
 102   1.0000      -0.783862       -21.3300
 103   1.0000      -0.781483       -21.2652
 104   1.0000      -0.777989       -21.1702
 105   1.0000      -0.777581       -21.1591
 106   1.0000      -0.758440       -20.6382
 107   1.0000      -0.730844       -19.8873
 108   1.0000      -0.721471       -19.6322
 109   1.0000      -0.720060       -19.5938
 110   1.0000      -0.714726       -19.4487
 111   1.0000      -0.714116       -19.4321
 112   1.0000      -0.712191       -19.3797
 113   1.0000      -0.708105       -19.2685
 114   1.0000      -0.707023       -19.2391
 115   1.0000      -0.703687       -19.1483
 116   1.0000      -0.678648       -18.4670
 117   1.0000      -0.670456       -18.2440
 118   1.0000      -0.663635       -18.0584
 119   1.0000      -0.657863       -17.9014
 120   1.0000      -0.639073       -17.3901
 121   1.0000      -0.636387       -17.3170
 122   1.0000      -0.633685       -17.2434
 123   1.0000      -0.628649       -17.1064
 124   1.0000      -0.624948       -17.0057
 125   1.0000      -0.623257       -16.9597
 126   1.0000      -0.622156       -16.9297
 127   1.0000      -0.621904       -16.9229
 128   1.0000      -0.618758       -16.8373
 129   1.0000      -0.615556       -16.7501
 130   1.0000      -0.612671       -16.6716
 131   1.0000      -0.609739       -16.5918
 132   1.0000      -0.601258       -16.3611
 133   1.0000      -0.592432       -16.1209
 134   1.0000      -0.575658       -15.6644
 135   1.0000      -0.563856       -15.3433
 136   1.0000      -0.558979       -15.2106
 137   1.0000      -0.555549       -15.1173
 138   1.0000      -0.550755       -14.9868
 139   1.0000      -0.540722       -14.7138
 140   1.0000      -0.540396       -14.7049
 141   1.0000      -0.533466       -14.5163
 142   1.0000      -0.530952       -14.4479
 143   1.0000      -0.528050       -14.3690
 144   1.0000      -0.523475       -14.2445
 145   1.0000      -0.521224       -14.1832
 146   1.0000      -0.514847       -14.0097
 147   1.0000      -0.512593       -13.9484
 148   1.0000      -0.510784       -13.8991
 149   1.0000      -0.507418       -13.8075
 150   1.0000      -0.502582       -13.6759
 151   1.0000      -0.493680       -13.4337
 152   1.0000      -0.489888       -13.3305
 153   1.0000      -0.488036       -13.2801
 154   1.0000      -0.486932       -13.2501
 155   1.0000      -0.481515       -13.1027
 156   1.0000      -0.472878       -12.8677
 157   1.0000      -0.472109       -12.8467
 158   1.0000      -0.463937       -12.6244
 159   1.0000      -0.463177       -12.6037
 160   1.0000      -0.461903       -12.5690
 161   1.0000      -0.460474       -12.5301
 162   1.0000      -0.459192       -12.4953
 163   1.0000      -0.452550       -12.3145
 164   1.0000      -0.447866       -12.1871
 165   1.0000      -0.447468       -12.1762
 166   1.0000      -0.446644       -12.1538
 167   1.0000      -0.444944       -12.1075
 168   1.0000      -0.437634       -11.9086
 169   1.0000      -0.437163       -11.8958
 170   1.0000      -0.436507       -11.8779
 171   1.0000      -0.433405       -11.7935
 172   1.0000      -0.428910       -11.6712
 173   1.0000      -0.427703       -11.6384
 174   1.0000      -0.425586       -11.5808
 175   1.0000      -0.422002       -11.4832
 176   1.0000      -0.421291       -11.4639
 177   1.0000      -0.420048       -11.4301
 178   1.0000      -0.415911       -11.3175
 179   1.0000      -0.415323       -11.3015
 180   1.0000      -0.413610       -11.2549
 181   1.0000      -0.412308       -11.2195
 182   1.0000      -0.410787       -11.1781
 183   1.0000      -0.410340       -11.1659
 184   1.0000      -0.406810       -11.0699
 185   1.0000      -0.403263       -10.9733
 186   1.0000      -0.400112       -10.8876
 187   1.0000      -0.395959       -10.7746
 188   1.0000      -0.394534       -10.7358
 189   1.0000      -0.393270       -10.7014
 190   1.0000      -0.390789       -10.6339
 191   1.0000      -0.386188       -10.5087
 192   1.0000      -0.382930       -10.4201
 193   1.0000      -0.369491       -10.0544
 194   1.0000      -0.359789        -9.7904
 195   1.0000      -0.359155        -9.7731
 196   1.0000      -0.359084        -9.7712
 197   1.0000      -0.356015        -9.6877
 198   1.0000      -0.352314        -9.5870
 199   1.0000      -0.349353        -9.5064
 200   1.0000      -0.347175        -9.4471
 201   1.0000      -0.346460        -9.4277
 202   1.0000      -0.344853        -9.3839
 203   1.0000      -0.341028        -9.2798
 204   1.0000      -0.340449        -9.2641
 205   1.0000      -0.339430        -9.2364
 206   1.0000      -0.338204        -9.2030
 207   1.0000      -0.335105        -9.1187
 208   1.0000      -0.334224        -9.0947
 209   1.0000      -0.332460        -9.0467
 210   1.0000      -0.331581        -9.0228
 211   1.0000      -0.330986        -9.0066
 212   1.0000      -0.328746        -8.9456
 213   1.0000      -0.324601        -8.8328
 214   1.0000      -0.321218        -8.7408
 215   1.0000      -0.314924        -8.5695
 216   1.0000      -0.299854        -8.1594
 217   1.0000      -0.252941        -6.8829
 218   1.0000      -0.249387        -6.7862
 219   1.0000      -0.249071        -6.7776
 220   1.0000      -0.247391        -6.7319
 221   1.0000      -0.243736        -6.6324
 222   1.0000      -0.241552        -6.5730
 223   1.0000      -0.240721        -6.5503
 224   1.0000      -0.240550        -6.5457
 225   1.0000      -0.237446        -6.4612
 226   1.0000      -0.191610        -5.2140
 227   1.0000      -0.189905        -5.1676
 228   1.0000      -0.188910        -5.1405
 229   1.0000      -0.183024        -4.9803
 230   1.0000      -0.181904        -4.9499
 231   0.0000       0.039211         1.0670
 232   0.0000       0.040751         1.1089
 233   0.0000       0.041613         1.1323
 234   0.0000       0.088390         2.4052
 235   0.0000       0.090104         2.4519

                 SPIN DOWN ORBITALS
  NO   OCC          E(Eh)            E(eV)
   0   1.0000     -19.322064      -525.7801
   1   1.0000     -19.321709      -525.7704
   2   1.0000     -19.221374      -523.0402
   3   1.0000     -19.220778      -523.0240
   4   1.0000     -19.164420      -521.4904
   5   1.0000     -19.163820      -521.4740
   6   1.0000     -10.360399      -281.9208
   7   1.0000     -10.360170      -281.9146
   8   1.0000     -10.287821      -279.9458
   9   1.0000     -10.287077      -279.9256
  10   1.0000     -10.262869      -279.2669
  11   1.0000     -10.250046      -278.9179
  12   1.0000     -10.249843      -278.9124
  13   1.0000     -10.246744      -278.8281
  14   1.0000     -10.246115      -278.8110
  15   1.0000     -10.239326      -278.6262
  16   1.0000     -10.239048      -278.6187
  17   1.0000     -10.238718      -278.6097
  18   1.0000     -10.234844      -278.5043
  19   1.0000     -10.233946      -278.4798
  20   1.0000     -10.231874      -278.4234
  21   1.0000     -10.231432      -278.4114
  22   1.0000     -10.231390      -278.4103
  23   1.0000     -10.231180      -278.4046
  24   1.0000     -10.231143      -278.4036
  25   1.0000     -10.231093      -278.4022
  26   1.0000     -10.230933      -278.3978
  27   1.0000     -10.230807      -278.3944
  28   1.0000     -10.230679      -278.3909
  29   1.0000     -10.229075      -278.3473
  30   1.0000     -10.228877      -278.3419
  31   1.0000     -10.228534      -278.3326
  32   1.0000     -10.228384      -278.3285
  33   1.0000     -10.228054      -278.3195
  34   1.0000     -10.227750      -278.3112
  35   1.0000     -10.227706      -278.3100
  36   1.0000     -10.226930      -278.2889
  37   1.0000     -10.226863      -278.2871
  38   1.0000     -10.226764      -278.2844
  39   1.0000     -10.226599      -278.2799
  40   1.0000     -10.226412      -278.2748
  41   1.0000     -10.226340      -278.2729
  42   1.0000     -10.226318      -278.2723
  43   1.0000     -10.226065      -278.2654
  44   1.0000     -10.225883      -278.2604
  45   1.0000     -10.225775      -278.2575
  46   1.0000     -10.225609      -278.2530
  47   1.0000     -10.225342      -278.2457
  48   1.0000     -10.225182      -278.2413
  49   1.0000     -10.225034      -278.2373
  50   1.0000     -10.224805      -278.2311
  51   1.0000     -10.224620      -278.2261
  52   1.0000     -10.224461      -278.2217
  53   1.0000     -10.224274      -278.2166
  54   1.0000     -10.224055      -278.2107
  55   1.0000     -10.223941      -278.2076
  56   1.0000     -10.223723      -278.2016
  57   1.0000     -10.223073      -278.1840
  58   1.0000     -10.222786      -278.1762
  59   1.0000     -10.222678      -278.1732
  60   1.0000     -10.222661      -278.1727
  61   1.0000     -10.222577      -278.1705
  62   1.0000     -10.222518      -278.1689
  63   1.0000     -10.222426      -278.1664
  64   1.0000     -10.222358      -278.1645
  65   1.0000     -10.222179      -278.1596
  66   1.0000     -10.222012      -278.1551
  67   1.0000     -10.221778      -278.1487
  68   1.0000     -10.221485      -278.1408
  69   1.0000     -10.221150      -278.1316
  70   1.0000     -10.220655      -278.1182
  71   1.0000     -10.220625      -278.1173
  72   1.0000     -10.219631      -278.0903
  73   1.0000      -1.327060       -36.1111
  74   1.0000      -1.161615       -31.6091
  75   1.0000      -1.154636       -31.4193
  76   1.0000      -1.063406       -28.9368
  77   1.0000      -1.061579       -28.8870
  78   1.0000      -0.981532       -26.7089
  79   1.0000      -0.964088       -26.2342
  80   1.0000      -0.961643       -26.1676
  81   1.0000      -0.960020       -26.1235
  82   1.0000      -0.931267       -25.3411
  83   1.0000      -0.926088       -25.2001
  84   1.0000      -0.922201       -25.0944
  85   1.0000      -0.921972       -25.0881
  86   1.0000      -0.920507       -25.0483
  87   1.0000      -0.892906       -24.2972
  88   1.0000      -0.884422       -24.0664
  89   1.0000      -0.881123       -23.9766
  90   1.0000      -0.858015       -23.3478
  91   1.0000      -0.855771       -23.2867
  92   1.0000      -0.848923       -23.1004
  93   1.0000      -0.846636       -23.0381
  94   1.0000      -0.836416       -22.7600
  95   1.0000      -0.825861       -22.4728
  96   1.0000      -0.810845       -22.0642
  97   1.0000      -0.805015       -21.9056
  98   1.0000      -0.797858       -21.7108
  99   1.0000      -0.797036       -21.6884
 100   1.0000      -0.795378       -21.6433
 101   1.0000      -0.789683       -21.4884
 102   1.0000      -0.784952       -21.3596
 103   1.0000      -0.782387       -21.2898
 104   1.0000      -0.778664       -21.1885
 105   1.0000      -0.778245       -21.1771
 106   1.0000      -0.759149       -20.6575
 107   1.0000      -0.731787       -19.9129
 108   1.0000      -0.721618       -19.6362
 109   1.0000      -0.720821       -19.6145
 110   1.0000      -0.715738       -19.4762
 111   1.0000      -0.715263       -19.4633
 112   1.0000      -0.713833       -19.4244
 113   1.0000      -0.708614       -19.2824
 114   1.0000      -0.707599       -19.2548
 115   1.0000      -0.705314       -19.1926
 116   1.0000      -0.679018       -18.4770
 117   1.0000      -0.671125       -18.2622
 118   1.0000      -0.664098       -18.0710
 119   1.0000      -0.658252       -17.9119
 120   1.0000      -0.639381       -17.3984
 121   1.0000      -0.629318       -17.1246
 122   1.0000      -0.626627       -17.0514
 123   1.0000      -0.624284       -16.9876
 124   1.0000      -0.623107       -16.9556
 125   1.0000      -0.622393       -16.9362
 126   1.0000      -0.620358       -16.8808
 127   1.0000      -0.616386       -16.7727
 128   1.0000      -0.612601       -16.6697
 129   1.0000      -0.602084       -16.3835
 130   1.0000      -0.592854       -16.1324
 131   1.0000      -0.576230       -15.6800
 132   1.0000      -0.566205       -15.4072
 133   1.0000      -0.564477       -15.3602
 134   1.0000      -0.559726       -15.2309
 135   1.0000      -0.556344       -15.1389
 136   1.0000      -0.551490       -15.0068
 137   1.0000      -0.541566       -14.7368
 138   1.0000      -0.540955       -14.7201
 139   1.0000      -0.534206       -14.5365
 140   1.0000      -0.531779       -14.4704
 141   1.0000      -0.529366       -14.4048
 142   1.0000      -0.524808       -14.2808
 143   1.0000      -0.524186       -14.2638
 144   1.0000      -0.524017       -14.2592
 145   1.0000      -0.521541       -14.1918
 146   1.0000      -0.515475       -14.0268
 147   1.0000      -0.513126       -13.9629
 148   1.0000      -0.510956       -13.9038
 149   1.0000      -0.507834       -13.8189
 150   1.0000      -0.502700       -13.6792
 151   1.0000      -0.493994       -13.4423
 152   1.0000      -0.490816       -13.3558
 153   1.0000      -0.489238       -13.3128
 154   1.0000      -0.487599       -13.2682
 155   1.0000      -0.481862       -13.1121
 156   1.0000      -0.473641       -12.8884
 157   1.0000      -0.472872       -12.8675
 158   1.0000      -0.466168       -12.6851
 159   1.0000      -0.465224       -12.6594
 160   1.0000      -0.464136       -12.6298
 161   1.0000      -0.461226       -12.5506
 162   1.0000      -0.459957       -12.5161
 163   1.0000      -0.453447       -12.3389
 164   1.0000      -0.448509       -12.2046
 165   1.0000      -0.447992       -12.1905
 166   1.0000      -0.447141       -12.1673
 167   1.0000      -0.445286       -12.1168
 168   1.0000      -0.438222       -11.9246
 169   1.0000      -0.437685       -11.9100
 170   1.0000      -0.437178       -11.8962
 171   1.0000      -0.433068       -11.7844
 172   1.0000      -0.429418       -11.6851
 173   1.0000      -0.428084       -11.6488
 174   1.0000      -0.426088       -11.5944
 175   1.0000      -0.422924       -11.5084
 176   1.0000      -0.422464       -11.4958
 177   1.0000      -0.420522       -11.4430
 178   1.0000      -0.417488       -11.3604
 179   1.0000      -0.417214       -11.3530
 180   1.0000      -0.416534       -11.3345
 181   1.0000      -0.415657       -11.3106
 182   1.0000      -0.412214       -11.2169
 183   1.0000      -0.411473       -11.1967
 184   1.0000      -0.407600       -11.0914
 185   1.0000      -0.405004       -11.0207
 186   1.0000      -0.400736       -10.9046
 187   1.0000      -0.396810       -10.7977
 188   1.0000      -0.395111       -10.7515
 189   1.0000      -0.393774       -10.7151
 190   1.0000      -0.391033       -10.6405
 191   1.0000      -0.386213       -10.5094
 192   1.0000      -0.383131       -10.4255
 193   1.0000      -0.369565       -10.0564
 194   1.0000      -0.359742        -9.7891
 195   1.0000      -0.357919        -9.7395
 196   1.0000      -0.353759        -9.6263
 197   1.0000      -0.353295        -9.6137
 198   1.0000      -0.350103        -9.5268
 199   1.0000      -0.349103        -9.4996
 200   1.0000      -0.347711        -9.4617
 201   1.0000      -0.343123        -9.3368
 202   1.0000      -0.340974        -9.2784
 203   1.0000      -0.340057        -9.2534
 204   1.0000      -0.338810        -9.2195
 205   1.0000      -0.335898        -9.1402
 206   1.0000      -0.335597        -9.1321
 207   1.0000      -0.335088        -9.1182
 208   1.0000      -0.333562        -9.0767
 209   1.0000      -0.332157        -9.0384
 210   1.0000      -0.328951        -8.9512
 211   1.0000      -0.328379        -8.9356
 212   1.0000      -0.323936        -8.8147
 213   1.0000      -0.315034        -8.5725
 214   1.0000      -0.299952        -8.1621
 215   1.0000      -0.258091        -7.0230
 216   1.0000      -0.255729        -6.9587
 217   1.0000      -0.253427        -6.8961
 218   1.0000      -0.252764        -6.8781
 219   1.0000      -0.248912        -6.7732
 220   1.0000      -0.248261        -6.7555
 221   1.0000      -0.247232        -6.7275
 222   1.0000      -0.243829        -6.6349
 223   1.0000      -0.241811        -6.5800
 224   1.0000      -0.197672        -5.3789
 225   1.0000      -0.195948        -5.3320
 226   1.0000      -0.186245        -5.0680
 227   1.0000      -0.186112        -5.0644
 228   1.0000      -0.184112        -5.0099
 229   1.0000      -0.091394        -2.4870
 230   0.0000       0.030216         0.8222
 231   0.0000       0.032202         0.8763
 232   0.0000       0.040150         1.0926
 233   0.0000       0.040641         1.1059
 234   0.0000       0.066602         1.8123

LOEWDIN ATOMIC CHARGES AND SPIN POPULATIONS
-------------------------------------------
   0 C :   -0.021222   -0.037082
   1 C :   -0.009774    0.004078
   2 C :   -0.007654    0.000895
   3 C :   -0.011869    0.004660
   4 C :   -0.018889   -0.024762
   5 C :   -0.033915   -0.065518
   6 C :   -0.023894   -0.041345
   7 C :   -0.034449   -0.068128
   8 C :   -0.008709    0.004664
   9 C :   -0.026042   -0.037087
  10 C :   -0.010537    0.003309
  11 C :   -0.011661   -0.006204
  12 C :   -0.026733   -0.041311
  13 C :   -0.024391   -0.031925
  14 C :   -0.010420   -0.003512
  15 C :   -0.011541   -0.003259
  16 C :   -0.010872    0.001857
  17 C :   -0.009500    0.006710
  18 C :   -0.011723    0.000995
  19 C :   -0.027154   -0.038170
  20 C :   -0.011252   -0.003308
  21 C :   -0.005962    0.007145
  22 C :   -0.015305    0.000139
  23 C :   -0.005551    0.005644
  24 C :   -0.009392    0.005099
  25 C :   -0.009709    0.005146
  26 C :   -0.010938   -0.000852
  27 C :   -0.022593   -0.038316
  28 C :   -0.013557   -0.003774
  29 C :   -0.031973   -0.063626
  30 C :   -0.019953   -0.024851
  31 C :   -0.009109   -0.002758
  32 C :    0.024158    0.000783
  33 C :   -0.039287   -0.049244
  34 C :   -0.034546   -0.077537
  35 C :   -0.009140    0.002276
  36 C :   -0.010119    0.004905
  37 C :   -0.019177   -0.030021
  38 C :   -0.021957   -0.033409
  39 C :   -0.008712    0.003137
  40 C :   -0.023052   -0.030994
  41 C :   -0.017734    0.005546
  42 C :    0.023200   -0.002923
  43 C :   -0.003609    0.006772
  44 C :   -0.012018   -0.001884
  45 C :   -0.013118   -0.000438
  46 C :   -0.028981   -0.046989
  47 C :   -0.022095   -0.038456
  48 C :   -0.010394   -0.002075
  49 C :   -0.009652    0.004013
  50 C :   -0.013852    0.006558
  51 C :   -0.017793   -0.022226
  52 C :   -0.011360   -0.008453
  53 C :   -0.035418   -0.070530
  54 C :   -0.010532    0.001661
  55 C :   -0.033051   -0.063529
  56 C :   -0.025878   -0.031599
  57 C :   -0.012543    0.001670
  58 C :   -0.022703   -0.042326
  59 C :   -0.006457    0.003611
  60 H :    0.037016    0.000002
  61 C :   -0.077744   -0.000145
  62 H :    0.030278   -0.000056
  63 H :    0.024290   -0.000019
  64 C :    0.081863    0.000003
  65 O :   -0.072418   -0.000317
  66 H :    0.038552   -0.000032
  67 C :    0.100142   -0.000401
  68 C :   -0.099245   -0.000288
  69 O :   -0.163983   -0.001084
  70 H :    0.019738    0.000008
  71 C :    0.099701   -0.000599
  72 H :    0.038091   -0.000001
  73 O :   -0.072093    0.000105
  74 H :    0.017591   -0.000187
  75 O :   -0.159907    0.000098
  76 C :    0.079760    0.000545
  77 C :   -0.073702    0.000390
  78 H :    0.026300   -0.000125
  79 H :    0.033837    0.000057
  80 H :    0.018825    0.000075
  81 O :    0.015819    1.007550
  82 O :   -0.000651    0.991572

  Mayer bond orders larger than 0.100000
B(  0-C ,  1-C ) :   1.1788 B(  0-C ,  3-C ) :   1.4391 B(  0-C ,  4-C ) :   1.2113
B(  1-C ,  2-C ) :   1.4506 B(  1-C ,  5-C ) :   1.2149 B(  2-C ,  6-C ) :   1.1853
B(  2-C ,  7-C ) :   1.2121 B(  3-C ,  8-C ) :   1.1794 B(  3-C ,  9-C ) :   1.2176
B(  4-C , 10-C ) :   1.4490 B(  4-C , 11-C ) :   1.1735 B(  5-C , 11-C ) :   1.2203
B(  5-C , 12-C ) :   1.3888 B(  6-C , 13-C ) :   1.2280 B(  6-C , 14-C ) :   1.4241
B(  7-C ,  9-C ) :   1.3992 B(  7-C , 15-C ) :   1.2071 B(  8-C , 16-C ) :   1.4845
B(  8-C , 17-C ) :   1.1758 B(  9-C , 18-C ) :   1.2149 B( 10-C , 16-C ) :   1.1770
B( 10-C , 19-C ) :   1.2124 B( 11-C , 20-C ) :   1.4474 B( 12-C , 14-C ) :   1.2122
B( 12-C , 21-C ) :   1.2117 B( 13-C , 15-C ) :   1.1629 B( 13-C , 22-C ) :   1.4392
B( 14-C , 23-C ) :   1.1862 B( 15-C , 24-C ) :   1.4455 B( 16-C , 25-C ) :   1.1778
B( 17-C , 18-C ) :   1.1832 B( 17-C , 26-C ) :   1.4801 B( 18-C , 27-C ) :   1.4394
B( 19-C , 28-C ) :   1.2211 B( 19-C , 29-C ) :   1.3946 B( 20-C , 29-C ) :   1.2175
B( 20-C , 30-C ) :   1.1737 B( 21-C , 30-C ) :   1.4520 B( 21-C , 31-C ) :   1.1775
B( 22-C , 32-C ) :   1.1311 B( 22-C , 33-C ) :   1.2109 B( 23-C , 31-C ) :   1.1405
B( 23-C , 32-C ) :   1.5298 B( 24-C , 27-C ) :   1.1724 B( 24-C , 34-C ) :   1.2149
B( 25-C , 28-C ) :   1.1791 B( 25-C , 35-C ) :   1.4827 B( 26-C , 35-C ) :   1.1781
B( 26-C , 36-C ) :   1.1800 B( 27-C , 37-C ) :   1.2157 B( 28-C , 38-C ) :   1.4367
B( 29-C , 39-C ) :   1.2089 B( 30-C , 40-C ) :   1.2003 B( 31-C , 41-C ) :   1.4840
B( 32-C , 42-C ) :   0.1516 B( 32-C , 68-C ) :   0.9401 B( 33-C , 34-C ) :   1.3657
B( 33-C , 43-C ) :   1.2006 B( 34-C , 44-C ) :   1.2234 B( 35-C , 45-C ) :   1.1780
B( 36-C , 37-C ) :   1.4451 B( 36-C , 46-C ) :   1.2134 B( 37-C , 44-C ) :   1.1703
B( 38-C , 47-C ) :   1.2203 B( 38-C , 48-C ) :   1.1747 B( 39-C , 40-C ) :   1.1774
B( 39-C , 48-C ) :   1.4533 B( 40-C , 49-C ) :   1.4474 B( 41-C , 49-C ) :   1.1756
B( 41-C , 50-C ) :   1.1397 B( 42-C , 43-C ) :   1.1414 B( 42-C , 50-C ) :   1.5161
B( 42-C , 68-C ) :   0.9397 B( 43-C , 51-C ) :   1.4550 B( 44-C , 52-C ) :   1.4386
B( 45-C , 46-C ) :   1.2257 B( 45-C , 47-C ) :   1.4316 B( 46-C , 53-C ) :   1.3910
B( 47-C , 54-C ) :   1.1775 B( 48-C , 55-C ) :   1.2138 B( 49-C , 56-C ) :   1.2155
B( 50-C , 57-C ) :   1.1888 B( 51-C , 52-C ) :   1.1604 B( 51-C , 58-C ) :   1.2208
B( 52-C , 53-C ) :   1.2161 B( 53-C , 59-C ) :   1.2111 B( 54-C , 55-C ) :   1.2141
B( 54-C , 59-C ) :   1.4514 B( 55-C , 56-C ) :   1.3961 B( 56-C , 57-C ) :   1.2029
B( 57-C , 58-C ) :   1.4298 B( 58-C , 59-C ) :   1.1864 B( 60-H , 61-C ) :   0.9680
B( 61-C , 62-H ) :   0.9681 B( 61-C , 64-C ) :   1.1029 B( 61-C , 66-H ) :   0.9659
B( 63-H , 64-C ) :   0.9629 B( 64-C , 65-O ) :   0.8940 B( 64-C , 70-H ) :   0.9520
B( 65-O , 67-C ) :   1.2430 B( 67-C , 68-C ) :   0.8648 B( 67-C , 69-O ) :   2.1550
B( 68-C , 71-C ) :   0.8826 B( 71-C , 73-O ) :   1.2379 B( 71-C , 75-O ) :   2.1523
B( 72-H , 77-C ) :   0.9706 B( 73-O , 76-C ) :   0.8884 B( 74-H , 76-C ) :   0.9567
B( 76-C , 77-C ) :   1.0862 B( 76-C , 80-H ) :   0.9608 B( 77-C , 78-H ) :   0.9629
B( 77-C , 79-H ) :   0.9708 B( 81-O , 82-O ) :   1.8329

Dispersion correction           -0.079623787
FINAL SINGLE POINT ENERGY     -3007.323505381644

DIPOLE MOMENT
-------------

Method             : SCF
Type of density    : Electron Density
Multiplicity       :   2
Irrep              :   0
Energy             : -3007.2438815941604844 Eh
Relativity type    :
Basis              : AO
                                X                 Y                 Z
Electronic contribution:     11.241735922     -47.100042936      -8.160706934
Nuclear contribution   :    -11.612355268      49.729222674       7.959969198
                        -----------------------------------------
Total Dipole Moment    :     -0.370619346       2.629179739      -0.200737737
                        -----------------------------------------
Magnitude (a.u.)       :      2.662750540
Magnitude (Debye)      :      6.768173996

Rotational constants in cm-1:             0.002125             0.001298             0.001168
Rotational constants in MHz :            63.718958            38.914499            35.008970

                             ****ORCA TERMINATED NORMALLY****
TOTAL RUN TIME: 0 days 1 hours 51 minutes 5 seconds 76 msec
