                         Program Version 6.0.1  -  RELEASE   -
|  1> ! B3LYP def2-SVP OPT TightSCF ALLPOP KEEPDENS D3BJ
|  2>
|  3> %pal
|  4> nprocs 4
|  5> end
|  6>
|  7> * xyz 0 1
|  8> N          3.25020       -0.00010        0.00000
|  9> N         -3.54080        0.00010        0.00000
| 10> C          1.83980        0.00000        0.00000
| 11> C          1.14220       -1.20800        0.00000
| 12> C          1.14240        1.20810        0.00000
| 13> C         -0.94990       -0.00010        0.00000
| 14> C         -0.25260       -1.20800        0.00000
| 15> C         -0.25250        1.20800        0.00000
| 16> C         -2.37880        0.00000        0.00000
| 17> H          1.67430       -2.15590        0.00010
| 18> H          1.67460        2.15600        0.00000
| 19> H         -0.78210       -2.15780        0.00000
| 20> H         -0.78210        2.15780        0.00000
| 21> H          3.75640        0.87540       -0.00060
| 22> H          3.75630       -0.87570       -0.00060
| 23> *
| 24>
| 25>                          ****END OF INPUT****
 Total Charge           Charge          ....    0
 Multiplicity           Mult            ....    1
 Number of Electrons    NEL             ....   62
Dispersion correction           -0.027341846
FINAL SINGLE POINT ENERGY      -379.373554186367
Dispersion correction             ... done (  0.0 sec)
Dispersion correction           -0.027307353
FINAL SINGLE POINT ENERGY      -379.375711509793
Dispersion correction             ... done (  0.0 sec)
Dispersion correction           -0.027289590
FINAL SINGLE POINT ENERGY      -379.376162798343
Dispersion correction             ... done (  0.0 sec)
Dispersion correction           -0.027283657
FINAL SINGLE POINT ENERGY      -379.376207955338
Dispersion correction             ... done (  0.0 sec)
Dispersion correction           -0.027284266
FINAL SINGLE POINT ENERGY      -379.376216891515
Dispersion correction             ... done (  0.1 sec)
                    ***********************HURRAY********************

CARTESIAN COORDINATES (ANGSTROEM)
---------------------------------
  N      3.236552   -0.000081    0.000377
  N     -3.556786    0.000111   -0.000134
  C      1.870056   -0.000047    0.000124
  C      1.143383   -1.212787    0.000100
  C      1.143445    1.212731    0.000078
  C     -0.963659    0.000025   -0.000001
  C     -0.243423   -1.210767    0.000041
  C     -0.243361    1.210782    0.000023
  C     -2.394281    0.000066   -0.000074
  H      1.684059   -2.162859    0.000141
  H      1.684170    2.162775    0.000102
  H     -0.786831   -2.157708    0.000016
  H     -0.786725    2.157747   -0.000017
  H      3.755422    0.865570   -0.000945
  H      3.755378   -0.865759   -0.000930

 Multiplicity           Mult            ....    1
 Number of Electrons    NEL             ....   62
 Basis Dimension        Dim             ....  156

ORBITAL ENERGIES
----------------

  NO   OCC          E(Eh)            E(eV)
   0   2.0000     -14.358629      -390.7182
   1   2.0000     -14.306632      -389.3033
   2   2.0000     -10.251980      -278.9706
   3   2.0000     -10.215019      -277.9648
   4   2.0000     -10.208896      -277.7982
   5   2.0000     -10.208871      -277.7975
   6   2.0000     -10.208748      -277.7942
   7   2.0000     -10.198514      -277.5157
   8   2.0000     -10.198510      -277.5156
   9   2.0000      -0.933624       -25.4052
  10   2.0000      -0.880026       -23.9467
  11   2.0000      -0.847177       -23.0529
  12   2.0000      -0.754694       -20.5363
  13   2.0000      -0.750895       -20.4329
  14   2.0000      -0.638185       -17.3659
  15   2.0000      -0.628900       -17.1132
  16   2.0000      -0.553580       -15.0637
  17   2.0000      -0.540206       -14.6997
  18   2.0000      -0.533778       -14.5248
  19   2.0000      -0.457609       -12.4522
  20   2.0000      -0.450811       -12.2672
  21   2.0000      -0.435554       -11.8520
  22   2.0000      -0.409479       -11.1425
  23   2.0000      -0.405842       -11.0435
  24   2.0000      -0.364569        -9.9204
  25   2.0000      -0.364009        -9.9052
  26   2.0000      -0.340696        -9.2708
  27   2.0000      -0.317695        -8.6449
  28   2.0000      -0.307270        -8.3612
  29   2.0000      -0.271277        -7.3818
  30   2.0000      -0.217417        -5.9162
  31   0.0000      -0.028961        -0.7881
  32   0.0000      -0.020530        -0.5586
  33   0.0000       0.036680         0.9981
  34   0.0000       0.049838         1.3561
  35   0.0000       0.064377         1.7518

MULLIKEN ATOMIC CHARGES
-----------------------
   0 N :   -0.061946
   1 N :    0.039726
   2 C :    0.096284
   3 C :   -0.032479
   4 C :   -0.032479
   5 C :   -0.101986
   6 C :    0.040846
   7 C :    0.040847
   8 C :   -0.123807
   9 H :   -0.036296
  10 H :   -0.036296
  11 H :   -0.011123
  12 H :   -0.011123
  13 H :    0.114916
  14 H :    0.114916
Sum of atomic charges:   -0.0000000

LOEWDIN ATOMIC CHARGES
----------------------
   0 N :   -0.003419
   1 N :   -0.087911
   2 C :    0.043343
   3 C :   -0.066321
   4 C :   -0.066321
   5 C :   -0.104630
   6 C :    0.018369
   7 C :    0.018370
   8 C :   -0.031518
   9 H :    0.025255
  10 H :    0.025255
  11 H :    0.037458
  12 H :    0.037458
  13 H :    0.077307
  14 H :    0.077307

  Mayer bond orders larger than 0.100000
B(  0-N ,  2-C ) :   1.2778 B(  0-N , 13-H ) :   0.9474 B(  0-N , 14-H ) :   0.9474
B(  1-N ,  8-C ) :   3.0011 B(  2-C ,  3-C ) :   1.2873 B(  2-C ,  4-C ) :   1.2873
B(  3-C ,  6-C ) :   1.4152 B(  3-C ,  9-H ) :   0.9856 B(  4-C ,  7-C ) :   1.4152
B(  4-C , 10-H ) :   0.9856 B(  5-C ,  6-C ) :   1.3478 B(  5-C ,  7-C ) :   1.3478
B(  5-C ,  8-C ) :   1.0829 B(  6-C , 11-H ) :   0.9844 B(  7-C , 12-H ) :   0.9844

Dispersion correction           -0.027285309
FINAL SINGLE POINT ENERGY      -379.376217496217

DIPOLE MOMENT
-------------

Method             : SCF
Type of density    : Electron Density
Multiplicity       :   1
Irrep              :   0
Energy             :  -379.3489321869283231 Eh
Relativity type    :
Basis              : AO
                                X                 Y                 Z
Electronic contribution:     -5.448557719       0.000145673       0.000391882
Nuclear contribution   :      8.315748406      -0.000229175      -0.001781503
                        -----------------------------------------
Total Dipole Moment    :      2.867190687      -0.000083501      -0.001389620
                        -----------------------------------------
Magnitude (a.u.)       :      2.867191025
Magnitude (Debye)      :      7.287820412

Rotational constants in cm-1:             0.185506             0.032827             0.027891
Rotational constants in MHz :          5561.318273           984.124696           836.158949

                             ****ORCA TERMINATED NORMALLY****
TOTAL RUN TIME: 0 days 0 hours 1 minutes 26 seconds 331 msec
