                         Program Version 6.0.1  -  RELEASE   -
|  1> ! B3LYP def2-SVP OPT TightSCF D3BJ
|  2>
|  3>
|  4> %maxcore 3000
|  5>
|  6> %pal
|  7> nprocs 40
|  8> end
|  9>
| 10> * xyz 0 1
| 11> O        2.8515802119      0.7211638393      0.9366968446
| 12> O        2.7488933113     -0.9837853473     -0.3962714592
| 13> N        2.2347845702     -0.0541608210      0.2154706914
| 14> N       -3.3105216888      0.6859596170     -0.3344756169
| 15> C        0.7985883426      0.1410080764      0.0758159059
| 16> C       -1.9706220701      0.5173419310     -0.1942456137
| 17> C        0.1714001310      1.1891728575      0.7592428377
| 18> C        0.0590785394     -0.7223001474     -0.7414172657
| 19> C       -1.1950781899      1.3753768046      0.6266276238
| 20> C       -1.3061811485     -0.5373107901     -0.8749912795
| 21> H        0.7756151009      1.8435186923      1.3871337959
| 22> H        0.5779887452     -1.5282803173     -1.2596667730
| 23> H       -1.6866063934      2.1934209771      1.1597535408
| 24> H       -1.8996586210     -1.1994712209     -1.5069527892
| 25> H       -3.7817827867      1.4396974943      0.1441506716
| 26> H       -3.8453978105      0.0610271739     -0.9359960621
| 27> O       -3.2293368887      2.5469680834     -2.5382122231
| 28> H       -3.6133460500      2.0743096896     -1.7862868262
| 29> H       -3.9830842353      2.9851278925     -2.9578715912
| 30> *
| 31>
| 32>
| 33>                          ****END OF INPUT****
 Total Charge           Charge          ....    0
 Multiplicity           Mult            ....    1
 Number of Electrons    NEL             ....   82
 Basis Dimension        Dim             ....  194

ORBITAL ENERGIES
----------------

  NO   OCC          E(Eh)            E(eV)
   0   2.0000     -19.141452      -520.8654
   1   2.0000     -19.141341      -520.8624
   2   2.0000     -19.115934      -520.1710
   3   2.0000     -14.540403      -395.6645
   4   2.0000     -14.377266      -391.2253
   5   2.0000     -10.260607      -279.2053
   6   2.0000     -10.229315      -278.3538
   7   2.0000     -10.211258      -277.8625
   8   2.0000     -10.211007      -277.8556
   9   2.0000     -10.205619      -277.7090
  10   2.0000     -10.205112      -277.6952
  11   2.0000      -1.200791       -32.6752
  12   2.0000      -1.025631       -27.9088
  13   2.0000      -0.978528       -26.6271
  14   2.0000      -0.950498       -25.8644
  15   2.0000      -0.865268       -23.5451
  16   2.0000      -0.780655       -21.2427
  17   2.0000      -0.760701       -20.6997
  18   2.0000      -0.683104       -18.5882
  19   2.0000      -0.637105       -17.3365
  20   2.0000      -0.591632       -16.0991
  21   2.0000      -0.556110       -15.1325
  22   2.0000      -0.554398       -15.0859
  23   2.0000      -0.529223       -14.4009
  24   2.0000      -0.521821       -14.1995
  25   2.0000      -0.515180       -14.0188
  26   2.0000      -0.490467       -13.3463
  27   2.0000      -0.457877       -12.4595
  28   2.0000      -0.455198       -12.3866
  29   2.0000      -0.441586       -12.0162
  30   2.0000      -0.421774       -11.4771
  31   2.0000      -0.412116       -11.2143
  32   2.0000      -0.366233        -9.9657
  33   2.0000      -0.363894        -9.9021
  34   2.0000      -0.341402        -9.2900
  35   2.0000      -0.294238        -8.0066
  36   2.0000      -0.293656        -7.9908
  37   2.0000      -0.290987        -7.9182
  38   2.0000      -0.274942        -7.4816
  39   2.0000      -0.274735        -7.4759
  40   2.0000      -0.232663        -6.3311
  41   0.0000      -0.071516        -1.9460
  42   0.0000      -0.024131        -0.6566
  43   0.0000       0.013519         0.3679
  44   0.0000       0.019643         0.5345
  45   0.0000       0.060394         1.6434

MULLIKEN ATOMIC CHARGES
-----------------------
   0 O :   -0.257163
   1 O :   -0.257550
   2 N :    0.237430
   3 N :   -0.065248
   4 C :    0.161441
   5 C :    0.099325
   6 C :   -0.016834
   7 C :   -0.014637
   8 C :   -0.018771
   9 C :   -0.015139
  10 H :    0.004470
  11 H :    0.004539
  12 H :   -0.031499
  13 H :   -0.032002
  14 H :    0.124614
  15 H :    0.129057
  16 O :   -0.293297
  17 H :    0.094934
  18 H :    0.146331
Sum of atomic charges:   -0.0000000

LOEWDIN ATOMIC CHARGES
----------------------
   0 O :   -0.222244
   1 O :   -0.222604
   2 N :    0.278258
   3 N :    0.017690
   4 C :   -0.057300
   5 C :    0.046756
   6 C :    0.012128
   7 C :    0.011578
   8 C :   -0.056950
   9 C :   -0.054555
  10 H :    0.041518
  11 H :    0.041574
  12 H :    0.026808
  13 H :    0.026243
  14 H :    0.075815
  15 H :    0.083510
  16 O :   -0.155177
  17 H :    0.033345
  18 H :    0.073606

  Mayer bond orders larger than 0.100000
B(  0-O ,  1-O ) :   0.2671 B(  0-O ,  2-N ) :   1.5312 B(  1-O ,  2-N ) :   1.5304
B(  2-N ,  4-C ) :   0.8913 B(  3-N ,  5-C ) :   1.2464 B(  3-N , 14-H ) :   0.9375
B(  3-N , 15-H ) :   0.9373 B(  4-C ,  6-C ) :   1.3483 B(  4-C ,  7-C ) :   1.3449
B(  5-C ,  8-C ) :   1.2880 B(  5-C ,  9-C ) :   1.2894 B(  6-C ,  8-C ) :   1.3931
B(  6-C , 10-H ) :   0.9799 B(  7-C ,  9-C ) :   1.3947 B(  7-C , 11-H ) :   0.9804
B(  8-C , 12-H ) :   0.9840 B(  9-C , 13-H ) :   0.9833 B( 16-O , 17-H ) :   0.9739
B( 16-O , 18-H ) :   1.0031

Dispersion correction           -0.032011654
FINAL SINGLE POINT ENERGY      -567.839850716012
Dispersion correction             ... done (  0.1 sec)
Dispersion correction           -0.031838223
FINAL SINGLE POINT ENERGY      -567.840897785580
Dispersion correction             ... done (  0.1 sec)
Dispersion correction           -0.031667889
FINAL SINGLE POINT ENERGY      -567.840918911806
Dispersion correction             ... done (  0.1 sec)
FINAL SINGLE POINT ENERGY      -567.841309073879
FINAL SINGLE POINT ENERGY      -567.841617011670
FINAL SINGLE POINT ENERGY      -567.841706573238
FINAL SINGLE POINT ENERGY      -567.841954618849
FINAL SINGLE POINT ENERGY      -567.842187263020
FINAL SINGLE POINT ENERGY      -567.842532686816
FINAL SINGLE POINT ENERGY      -567.842921557557
FINAL SINGLE POINT ENERGY      -567.854881959387
FINAL SINGLE POINT ENERGY      -567.855097844104
FINAL SINGLE POINT ENERGY      -567.855113505590
FINAL SINGLE POINT ENERGY      -567.855412126143
FINAL SINGLE POINT ENERGY      -567.855491991774
FINAL SINGLE POINT ENERGY      -567.855564068951
FINAL SINGLE POINT ENERGY      -567.855636820846
Dispersion correction           -0.031574352
FINAL SINGLE POINT ENERGY      -567.855722235772
Dispersion correction             ... done (  0.1 sec)
Dispersion correction           -0.031575106
FINAL SINGLE POINT ENERGY      -567.855780875476
Dispersion correction             ... done (  0.1 sec)

CARTESIAN COORDINATES (ANGSTROEM)
---------------------------------
  O      2.756448   -0.266430    1.359141
  O      2.729607   -0.758960   -0.750423
  N      2.203127   -0.323279    0.267280
  N     -3.085338    1.541361   -0.122294
  C      0.832514    0.160206    0.171000
  C     -1.808779    1.091054   -0.013038
  C      0.194411    0.663216    1.310606
  C      0.167959    0.116483   -1.060437
  C     -1.109658    1.122452    1.220675
  C     -1.135244    0.576319   -1.151652
  H      0.740368    0.682546    2.253356
  H      0.692637   -0.279722   -1.929342
  H     -1.611520    1.515102    2.108833
  H     -1.663269    0.550461   -2.106532
  H     -3.574375    1.895669    0.687705
  H     -3.572192    1.458120   -1.012840
  O     -4.183434    1.104690   -2.777435
  H     -3.987470    1.685989   -3.524268
  H     -4.189477    0.213503   -3.151831

Dispersion correction           -0.031584247
FINAL SINGLE POINT ENERGY      -567.855813748238
Dispersion correction             ... done (  0.1 sec)
                             ****ORCA TERMINATED NORMALLY****
TOTAL RUN TIME: 0 days 0 hours 11 minutes 32 seconds 366 msec
