                         Program Version 6.0.1  -  RELEASE   -
|  1> ! TPSSh def2-TZVP OPT SlowConv ALLPOP KEEPDENS D3BJ CPCM(WATER)
|  2>
|  3> %maxcore 5000
|  4>
|  5> %pal
|  6> nprocs 20
|  7> end
|  8>
|  9> * xyz 2 1
| 10>   Zn          1.02364475438320      0.91044315734202      1.17116331075490
| 11>   H          -0.95342505972436     -0.02719482290239     -0.38954265142863
| 12>   O          -0.83246721570820      0.73208903894591      0.20432113111855
| 13>   H          -1.60512185442139      0.73028959302941      0.79378431834766
| 14>   H           3.65416558514113      1.04732816869309      1.45494462091268
| 15>   O           2.91002716948236      1.05640772922713      2.08008555031703
| 16>   H           3.06449153913463      1.81937271857391      2.66145978961571
| 17>   H           0.60811495405729      2.96680972699777     -0.45588181813805
| 18>   O           1.17766264405291      2.82910472533790      0.31951281518450
| 19>   H           2.06170005126903      3.12893595285740      0.05058599961877
| 20>   H           0.18912580405209     -1.58262806558317      1.72839169413752
| 21>   O           0.77785563736739     -0.93179495642250      2.14515815731855
| 22>   H           1.59694354664894     -1.41314253237115      2.34951645022746
| 23>   H           0.15193599251480      1.39262586321963      3.65179371469133
| 24>   O           0.03632294145932      1.81222800324864      2.78331319954990
| 25>   H           0.22890808736414      2.75485833337241      2.91822204122417
| 26>   H           1.87700197559256     -0.92026199170526     -0.60339135898568
| 27>   O           2.02767061502620      0.02958275287409     -0.46362443447035
| 28>   H           1.89811283230788      0.44440660526511     -1.33280252999611
| 29> *
| 30>
| 31>                          ****END OF INPUT****
 Total Charge           Charge          ....    2
 Multiplicity           Mult            ....    1
 Number of Electrons    NEL             ....   88
Dispersion correction           -0.016930478
FINAL SINGLE POINT ENERGY     -2238.005243859437
Dispersion correction             ... done (  0.0 sec)
Dispersion correction           -0.016928322
FINAL SINGLE POINT ENERGY     -2238.005363021693
Dispersion correction             ... done (  0.0 sec)
Dispersion correction           -0.016916817
FINAL SINGLE POINT ENERGY     -2238.005415389616
Dispersion correction             ... done (  0.0 sec)
FINAL SINGLE POINT ENERGY     -2238.005455880044
FINAL SINGLE POINT ENERGY     -2238.005477153469
FINAL SINGLE POINT ENERGY     -2238.005500227116
FINAL SINGLE POINT ENERGY     -2238.005513451343
FINAL SINGLE POINT ENERGY     -2238.005520034716
Dispersion correction             ... done (  0.0 sec)
Dispersion correction           -0.016892217
FINAL SINGLE POINT ENERGY     -2238.005523598777
Dispersion correction             ... done (  0.0 sec)
Dispersion correction           -0.016899680
FINAL SINGLE POINT ENERGY     -2238.005525687299
Dispersion correction             ... done (  0.0 sec)
                    ***********************HURRAY********************

CARTESIAN COORDINATES (ANGSTROEM)
---------------------------------
  Zn     1.033963    0.904708    1.148873
  H     -0.971623   -0.030574   -0.369451
  O     -0.839929    0.749438    0.190171
  H     -1.595931    0.776706    0.796240
  H      3.668136    1.050962    1.450642
  O      2.927310    1.033962    2.075558
  H      3.060101    1.787619    2.670121
  H      0.603524    2.964295   -0.466730
  O      1.152948    2.847832    0.323361
  H      2.039199    3.156290    0.081498
  H      0.225538   -1.580932    1.739865
  O      0.786460   -0.919996    2.173206
  H      1.616034   -1.372769    2.388556
  H      0.117574    1.360264    3.617785
  O      0.020930    1.807364    2.763672
  H      0.242619    2.737908    2.917473
  H      1.832299   -0.933695   -0.625688
  O      2.044999    0.000135   -0.476075
  H      1.928521    0.439943   -1.332065

 Multiplicity           Mult            ....    1
 Number of Electrons    NEL             ....   88
 Basis Dimension        Dim             ....  306

ORBITAL ENERGIES
----------------

  NO   OCC          E(Eh)            E(eV)
   0   2.0000    -347.010955     -9442.6481
   1   2.0000     -42.022208     -1143.4824
   2   2.0000     -36.973590     -1006.1025
   3   2.0000     -36.973337     -1006.0957
   4   2.0000     -36.973056     -1006.0880
   5   2.0000     -19.107260      -519.9350
   6   2.0000     -19.106286      -519.9085
   7   2.0000     -19.106203      -519.9062
   8   2.0000     -19.106168      -519.9053
   9   2.0000     -19.106115      -519.9038
  10   2.0000     -19.104550      -519.8612
  11   2.0000      -4.766038      -129.6905
  12   2.0000      -3.154400       -85.8356
  13   2.0000      -3.154258       -85.8317
  14   2.0000      -3.154137       -85.8284
  15   2.0000      -1.044930       -28.4340
  16   2.0000      -1.037563       -28.2335
  17   2.0000      -1.037062       -28.2199
  18   2.0000      -1.036667       -28.2091
  19   2.0000      -1.034384       -28.1470
  20   2.0000      -1.033870       -28.1330
  21   2.0000      -0.557153       -15.1609
  22   2.0000      -0.555595       -15.1185
  23   2.0000      -0.555057       -15.1039
  24   2.0000      -0.554505       -15.0889
  25   2.0000      -0.553355       -15.0576
  26   2.0000      -0.553027       -15.0486
  27   2.0000      -0.494992       -13.4694
  28   2.0000      -0.492735       -13.4080
  29   2.0000      -0.492244       -13.3947
  30   2.0000      -0.458022       -12.4634
  31   2.0000      -0.450714       -12.2645
  32   2.0000      -0.449790       -12.2394
  33   2.0000      -0.447996       -12.1906
  34   2.0000      -0.439814       -11.9679
  35   2.0000      -0.429339       -11.6829
  36   2.0000      -0.389881       -10.6092
  37   2.0000      -0.386523       -10.5178
  38   2.0000      -0.362829        -9.8731
  39   2.0000      -0.358129        -9.7452
  40   2.0000      -0.349305        -9.5051
  41   2.0000      -0.343089        -9.3359
  42   2.0000      -0.323346        -8.7987
  43   2.0000      -0.323181        -8.7942
  44   0.0000      -0.032385        -0.8812
  45   0.0000       0.017270         0.4700
  46   0.0000       0.022304         0.6069
  47   0.0000       0.026692         0.7263
  48   0.0000       0.064772         1.7625

MULLIKEN ATOMIC CHARGES
-----------------------
   0 Zn:    0.748622
   1 H :    0.404560
   2 O :   -0.604278
   3 H :    0.406038
   4 H :    0.406751
   5 O :   -0.601219
   6 H :    0.403981
   7 H :    0.406335
   8 O :   -0.599901
   9 H :    0.403867
  10 H :    0.404056
  11 O :   -0.598674
  12 H :    0.406303
  13 H :    0.405246
  14 O :   -0.608552
  15 H :    0.405470
  16 H :    0.404513
  17 O :   -0.597968
  18 H :    0.404851
Sum of atomic charges:    2.0000000

LOEWDIN ATOMIC CHARGES
----------------------
   0 Zn:    0.021622
   1 H :    0.211379
   2 O :   -0.093071
   3 H :    0.211444
   4 H :    0.211207
   5 O :   -0.093103
   6 H :    0.211702
   7 H :    0.211202
   8 O :   -0.093744
   9 H :    0.211412
  10 H :    0.211633
  11 O :   -0.091955
  12 H :    0.211558
  13 H :    0.210501
  14 O :   -0.092350
  15 H :    0.210308
  16 H :    0.212167
  17 O :   -0.094249
  18 H :    0.212339

  Mayer bond orders larger than 0.100000
B(  0-Zn,  2-O ) :   0.3356 B(  0-Zn,  5-O ) :   0.3380 B(  0-Zn,  8-O ) :   0.3434
B(  0-Zn, 11-O ) :   0.3451 B(  0-Zn, 14-O ) :   0.3436 B(  0-Zn, 17-O ) :   0.3298
B(  1-H ,  2-O ) :   0.8403 B(  2-O ,  3-H ) :   0.8389 B(  4-H ,  5-O ) :   0.8386
B(  5-O ,  6-H ) :   0.8412 B(  7-H ,  8-O ) :   0.8382 B(  8-O ,  9-H ) :   0.8410
B( 10-H , 11-O ) :   0.8401 B( 11-O , 12-H ) :   0.8388 B( 13-H , 14-O ) :   0.8395
B( 14-O , 15-H ) :   0.8389 B( 16-H , 17-O ) :   0.8406 B( 17-O , 18-H ) :   0.8413

Dispersion correction           -0.016902602
FINAL SINGLE POINT ENERGY     -2238.005526532967

DIPOLE MOMENT
-------------

Method             : SCF
Type of density    : Electron Density
Multiplicity       :   1
Irrep              :   0
Energy             : -2237.9886239306820244 Eh
Relativity type    :
Basis              : AO
                                X                 Y                 Z
Electronic contribution:      0.090442904      -0.057922277      -0.085379130
Nuclear contribution   :      0.386207981      -0.502565570      -0.916734246
                        -----------------------------------------
Total Dipole Moment    :      0.476650885      -0.560487847      -1.002113375
                        -----------------------------------------
Magnitude (a.u.)       :      1.243211128
Magnitude (Debye)      :      3.159991560

Rotational constants in cm-1:             0.050423             0.049045             0.048081
Rotational constants in MHz :          1511.657622          1470.319100          1441.434169

                             ****ORCA TERMINATED NORMALLY****
TOTAL RUN TIME: 0 days 0 hours 2 minutes 39 seconds 951 msec
