                         Program Version 6.0.1  -  RELEASE   -
|  1> ! B3LYP def2-SVP OPT TightSCF D3BJ
|  2>
|  3> %maxcore 5000
|  4>
|  5> %pal
|  6> nprocs 20
|  7> end
|  8>
|  9> * xyz 0 1
| 10> N         -2.38668        3.47447        0.00255
| 11> C         -1.01196        3.47459        0.00106
| 12> C         -0.28642        4.68472        0.00067
| 13> C         -0.28621        2.26457        0.00070
| 14> C          1.10730        4.67756        0.00003
| 15> C          1.10750        2.27198        0.00006
| 16> C          1.82096        3.47483       -0.00028
| 17> H         -0.82888        5.63470        0.00096
| 18> H         -0.82851        1.31450        0.00101
| 19> H          1.64366        5.63051       -0.00027
| 20> H          1.64403        1.31911       -0.00021
| 21> H          2.91288        3.47493       -0.00081
| 22> H         -2.90419        2.60891       -0.00324
| 23> H         -2.90433        4.33994       -0.00327
| 24> O         -2.41048        3.58652       -1.27758
| 25> H         -2.25003        2.82686       -1.85382
| 26> H         -2.18363        4.33965       -1.83987
| 27> *
| 28>
| 29>                          ****END OF INPUT****
 Total Charge           Charge          ....    0
 Multiplicity           Mult            ....    1
 Number of Electrons    NEL             ....   60
 Basis Dimension        Dim             ....  157

ORBITAL ENERGIES
----------------

  NO   OCC          E(Eh)            E(eV)
   0   2.0000     -19.246094      -523.7128
   1   2.0000     -14.471856      -393.7992
   2   2.0000     -10.224409      -278.2203
   3   2.0000     -10.180285      -277.0196
   4   2.0000     -10.179765      -277.0055
   5   2.0000     -10.178600      -276.9738
   6   2.0000     -10.177395      -276.9410
   7   2.0000     -10.161159      -276.4992
   8   2.0000      -1.277892       -34.7732
   9   2.0000      -0.952083       -25.9075
  10   2.0000      -0.839035       -22.8313
  11   2.0000      -0.757463       -20.6116
  12   2.0000      -0.745217       -20.2784
  13   2.0000      -0.712307       -19.3829
  14   2.0000      -0.652788       -17.7633
  15   2.0000      -0.640583       -17.4312
  16   2.0000      -0.591467       -16.0946
  17   2.0000      -0.550515       -14.9803
  18   2.0000      -0.530246       -14.4287
  19   2.0000      -0.484995       -13.1974
  20   2.0000      -0.439001       -11.9458
  21   2.0000      -0.433002       -11.7826
  22   2.0000      -0.420710       -11.4481
  23   2.0000      -0.412065       -11.2129
  24   2.0000      -0.356829        -9.7098
  25   2.0000      -0.344845        -9.3837
  26   2.0000      -0.337103        -9.1730
  27   2.0000      -0.247778        -6.7424
  28   2.0000      -0.239843        -6.5265
  29   2.0000      -0.073439        -1.9984
  30   0.0000      -0.002806        -0.0764
  31   0.0000       0.000186         0.0051
  32   0.0000       0.024862         0.6765
  33   0.0000       0.036715         0.9991
  34   0.0000       0.069493         1.8910

MULLIKEN ATOMIC CHARGES
-----------------------
   0 N :    0.297655
   1 C :   -0.033288
   2 C :    0.000371
   3 C :    0.012564
   4 C :    0.025663
   5 C :    0.019539
   6 C :   -0.009465
   7 H :   -0.057800
   8 H :   -0.056816
   9 H :   -0.024123
  10 H :   -0.024845
  11 H :   -0.032688
  12 H :   -0.009561
  13 H :   -0.056518
  14 O :    0.212918
  15 H :   -0.151740
  16 H :   -0.111864
Sum of atomic charges:   -0.0000000

LOEWDIN ATOMIC CHARGES
----------------------
   0 N :    0.263437
   1 C :   -0.043935
   2 C :   -0.086215
   3 C :   -0.073762
   4 C :   -0.013302
   5 C :   -0.019626
   6 C :   -0.089043
   7 H :    0.009329
   8 H :    0.011890
   9 H :    0.026229
  10 H :    0.025634
  11 H :    0.019130
  12 H :    0.002242
  13 H :   -0.025804
  14 O :    0.252222
  15 H :   -0.143129
  16 H :   -0.115295

  Mayer bond orders larger than 0.100000
B(  0-N ,  1-C ) :   1.1224 B(  0-N , 12-H ) :   0.7988 B(  0-N , 13-H ) :   0.7654
B(  0-N , 14-O ) :   0.5581 B(  0-N , 15-H ) :   0.1111 B(  1-C ,  2-C ) :   1.3000
B(  1-C ,  3-C ) :   1.3276 B(  2-C ,  4-C ) :   1.4327 B(  2-C ,  7-H ) :   0.9727
B(  3-C ,  5-C ) :   1.4336 B(  3-C ,  8-H ) :   0.9757 B(  4-C ,  6-C ) :   1.3391
B(  4-C ,  9-H ) :   0.9748 B(  5-C ,  6-C ) :   1.3212 B(  5-C , 10-H ) :   0.9743
B(  6-C , 11-H ) :   0.9879 B( 12-H , 15-H ) :   0.1022 B( 12-H , 16-H ) :   0.1339
B( 13-H , 15-H ) :   0.1663 B( 13-H , 16-H ) :   0.1301 B( 14-O , 15-H ) :   0.6591
B( 14-O , 16-H ) :   0.6575 B( 15-H , 16-H ) :   0.2111

Dispersion correction           -0.028544071
FINAL SINGLE POINT ENERGY      -363.103709571706
Dispersion correction             ... done (  0.0 sec)
Dispersion correction           -0.028546331
FINAL SINGLE POINT ENERGY      -363.195908441405
Dispersion correction             ... done (  0.0 sec)
Dispersion correction           -0.028468442
FINAL SINGLE POINT ENERGY      -363.284581063427
Dispersion correction             ... done (  0.0 sec)
FINAL SINGLE POINT ENERGY      -363.385566658200
FINAL SINGLE POINT ENERGY      -363.463625381030
FINAL SINGLE POINT ENERGY      -363.508144787425
FINAL SINGLE POINT ENERGY      -363.528857947629
FINAL SINGLE POINT ENERGY      -363.538651822304
FINAL SINGLE POINT ENERGY      -363.548723427917
FINAL SINGLE POINT ENERGY      -363.557060257520
FINAL SINGLE POINT ENERGY      -363.575155240445
FINAL SINGLE POINT ENERGY      -363.575351161026
FINAL SINGLE POINT ENERGY      -363.575583050463
FINAL SINGLE POINT ENERGY      -363.575858603664
FINAL SINGLE POINT ENERGY      -363.576113763545
FINAL SINGLE POINT ENERGY      -363.576206613678
FINAL SINGLE POINT ENERGY      -363.576010530496
Dispersion correction           -0.027161010
FINAL SINGLE POINT ENERGY      -363.576346181235
Dispersion correction             ... done (  0.0 sec)
Dispersion correction           -0.027187722
FINAL SINGLE POINT ENERGY      -363.576374972838
Dispersion correction             ... done (  0.0 sec)

CARTESIAN COORDINATES (ANGSTROEM)
---------------------------------
  N     -2.375890    3.300555    0.544780
  C     -1.006288    3.321421    0.310230
  C     -0.360987    4.532383   -0.025027
  C     -0.215665    2.161448    0.428953
  C      1.014163    4.567208   -0.256598
  C      1.162201    2.210404    0.211269
  C      1.789368    3.408325   -0.142342
  H     -0.950410    5.452441   -0.065209
  H     -0.692548    1.212583    0.692107
  H      1.489197    5.517807   -0.514499
  H      1.750940    1.294299    0.310854
  H      2.866646    3.440723   -0.318591
  H     -2.765929    2.369717    0.641948
  H     -2.901523    3.861676   -0.123458
  O     -2.631902    4.450722   -2.184109
  H     -2.489361    3.524135   -2.420250
  H     -1.727002    4.772502   -2.062369

Dispersion correction           -0.027189160
FINAL SINGLE POINT ENERGY      -363.576406478259
Dispersion correction             ... done (  0.0 sec)
                             ****ORCA TERMINATED NORMALLY****
TOTAL RUN TIME: 0 days 0 hours 7 minutes 45 seconds 452 msec
