                         Program Version 6.0.1  -  RELEASE   -
|  1> ! wB97X-D3 def2-SVP OPT NormalSCF
|  2>
|  3> %pal
|  4> nprocs 28
|  5> end
|  6>
|  7> %maxcore 3500
|  8>
|  9> %scf
| 10>  SmearTemp 500
| 11> end
| 12>
| 13>
| 14> * xyz -1 2
| 15> C 3.36385 -1.99584 0.386459
| 16> C 3.66055 -0.572846 0.435208
| 17> C 3.24083 0.192357 1.52993
| 18> C 2.65579 -2.60009 1.43241
| 19> C 3.06154 -2.34719 -0.994117
| 20> C 3.52891 -0.044316 -0.915537
| 21> C 2.68634 1.51935 1.31925
| 22> C 2.49219 -0.434311 2.60563
| 23> C 1.61945 -3.57839 1.13966
| 24> C 2.20962 -1.80097 2.56343
| 25> C 2.06732 -3.28952 -1.27468
| 26> C 3.1625 -1.13814 -1.79683
| 27> C 2.96525 1.21888 -1.11221
| 28> C 1.58281 1.70918 2.24615
| 29> C 2.55208 2.00834 0.021757
| 30> C 1.46576 0.505387 3.03265
| 31> C 1.33369 -3.91928 -0.186634
| 32> C 0.534464 -3.38568 2.09143
| 33> C 0.894996 -2.28044 2.96586
| 34> C 1.13794 -3.06222 -2.37168
| 35> C 2.2599 -0.909713 -2.83933
| 36> C 2.00935 1.46506 -2.17527
| 37> C 0.467253 2.47722 1.87801
| 38> C 1.41956 2.82564 -0.343398
| 39> C 0.201739 0.05572 3.3997
| 40> C -0.047186 -4.08725 -0.613747
| 41> C -0.793056 -3.54695 1.68045
| 42> C -0.084585 -1.37201 3.38264
| 43> C -0.16724 -3.56163 -1.96546
| 44> C 1.23252 -1.89436 -3.1382
| 45> C 1.68026 0.413826 -3.03167
| 46> C 1.00726 2.43337 -1.70273
| 47> C 0.575612 3.29583 0.669034
| 48> C -0.886608 1.96651 2.18929
| 49> C -0.98028 0.783077 2.96108
| 50> C -1.08994 -3.90896 0.301612
| 51> C -1.81255 -2.61139 2.1291
| 52> C -1.45958 -1.53957 2.95751
| 53> C -1.32709 -2.88258 -2.35126
| 54> C 0.026716 -1.18089 -3.52921
| 55> C 0.306923 0.247335 -3.45636
| 56> C -0.337138 2.27445 -2.12066
| 57> C -1.50375 3.04089 0.03062
| 58> C -1.90782 2.18383 1.14331
| 59> C -2.01309 -0.214793 2.71689
| 60> C -2.29806 -3.2046 -0.099515
| 61> C -2.74662 -2.40642 1.03165
| 62> C -2.41515 -2.70095 -1.40056
| 63> C -1.22687 -1.67322 -3.15453
| 64> C -0.665071 1.14123 -3.00315
| 65> C -1.51406 2.47096 -1.24894
| 66> C -2.83731 1.16909 0.878878
| 67> C -2.91733 -0.030678 1.67699
| 68> C -3.29656 -1.14096 0.816219
| 69> C -2.99147 -1.38385 -1.62202
| 70> C -2.2503 -0.749007 -2.70221
| 71> C -1.96738 0.618334 -2.63686
| 72> C -2.44353 1.40099 -1.52375
| 73> C -3.16361 0.805672 -0.48959
| 74> C -3.43391 -0.621621 -0.534234
| 75> H 1.01079 5.70594 4.39439
| 76> C -0.025016 6.07921 4.37886
| 77> H -0.14197 6.8071 5.19798
| 78> H 0.317939 7.60819 2.86708
| 79> C -0.341423 6.74847 3.05268
| 80> O -0.093766 5.86121 1.93801
| 81> H -0.708809 5.23855 4.56885
| 82> C -1.06594 5.01385 1.58305
| 83> C -0.593688 4.18199 0.364946
| 84> O -2.14368 4.9339 2.10853
| 85> H -1.38979 7.07988 3.01259
| 86> C -0.375757 5.20146 -0.774825
| 87> H -3.62271 6.46433 -2.59559
| 88> O -1.546 5.77178 -1.08241
| 89> H -1.12736 6.33894 -3.0339
| 90> O 0.675863 5.47844 -1.28485
| 91> C -1.53396 6.78416 -2.1116
| 92> C -2.95187 7.28287 -2.29224
| 93> H -2.97708 8.05869 -3.07354
| 94> H -3.33996 7.71875 -1.3586
| 95> H -0.84376 7.58709 -1.80568
| 96> O 0.445397 9.14828 5.06364
| 97> O -0.736089 9.16991 5.2365
| 98> *
| 99>
|100>                          ****END OF INPUT****
 Total Charge           Charge          ....   -1
 Multiplicity           Mult            ....    2
 Number of Electrons    NEL             ....  461
Dispersion correction           -0.078368163
FINAL SINGLE POINT ENERGY     -3007.315339824590
Dispersion correction             ... done (  0.0 sec)
Dispersion correction           -0.078588915
FINAL SINGLE POINT ENERGY     -3007.320453734425
Dispersion correction             ... done (  0.0 sec)
Dispersion correction           -0.078753394
FINAL SINGLE POINT ENERGY     -3007.321573855272
Dispersion correction             ... done (  0.0 sec)
FINAL SINGLE POINT ENERGY     -3007.321870139314
FINAL SINGLE POINT ENERGY     -3007.322487773969
FINAL SINGLE POINT ENERGY     -3007.322666020841
FINAL SINGLE POINT ENERGY     -3007.322801151155
FINAL SINGLE POINT ENERGY     -3007.322903666101
FINAL SINGLE POINT ENERGY     -3007.322944339669
FINAL SINGLE POINT ENERGY     -3007.322970345699
FINAL SINGLE POINT ENERGY     -3007.323030540075
FINAL SINGLE POINT ENERGY     -3007.323045450669
FINAL SINGLE POINT ENERGY     -3007.323058188873
FINAL SINGLE POINT ENERGY     -3007.323071033022
FINAL SINGLE POINT ENERGY     -3007.323082232983
FINAL SINGLE POINT ENERGY     -3007.323090485098
FINAL SINGLE POINT ENERGY     -3007.323097980012
Dispersion correction             ... done (  0.0 sec)
Dispersion correction           -0.079139527
FINAL SINGLE POINT ENERGY     -3007.323103436012
Dispersion correction             ... done (  0.0 sec)
Dispersion correction           -0.079138880
FINAL SINGLE POINT ENERGY     -3007.323108330432
Dispersion correction             ... done (  0.0 sec)
                    ***********************HURRAY********************

CARTESIAN COORDINATES (ANGSTROEM)
---------------------------------
  C      3.348537   -1.882268    0.365290
  C      3.636428   -0.455247    0.381073
  C      3.237758    0.316317    1.470581
  C      2.667456   -2.466273    1.433953
  C      3.021711   -2.250478   -0.994749
  C      3.495987    0.050974   -0.968699
  C      2.685983    1.644767    1.251252
  C      2.528749   -0.289539    2.573971
  C      1.631118   -3.451050    1.170551
  C      2.247356   -1.662161    2.559453
  C      2.028645   -3.192861   -1.247785
  C      3.104768   -1.048322   -1.814223
  C      2.929954    1.317883   -1.176359
  C      1.610569    1.846144    2.188721
  C      2.532234    2.105869   -0.051877
  C      1.508594    0.648442    2.990267
  C      1.322626   -3.807958   -0.134441
  C      0.565694   -3.244010    2.138136
  C      0.947608   -2.127461    2.986219
  C      1.085672   -2.991967   -2.326963
  C      2.184370   -0.843616   -2.838954
  C      1.955497    1.540507   -2.217491
  C      0.486471    2.603122    1.836932
  C      1.396038    2.919588   -0.400763
  C      0.254230    0.211998    3.383398
  C     -0.063488   -3.981470   -0.533253
  C     -0.758184   -3.410604    1.756979
  C     -0.027020   -1.218152    3.402869
  C     -0.202794   -3.476106   -1.889728
  C      1.165675   -1.829306   -3.111430
  C      1.606019    0.481242   -3.045456
  C      0.958456    2.519501   -1.751378
  C      0.580620    3.395085    0.612918
  C     -0.852814    2.116600    2.183212
  C     -0.931760    0.933878    2.973390
  C     -1.080391   -3.791134    0.392054
  C     -1.772362   -2.468313    2.203274
  C     -1.399193   -1.390238    3.006120
  C     -1.370304   -2.805351   -2.255485
  C     -0.043122   -1.121784   -3.475846
  C      0.233671    0.309595   -3.441667
  C     -0.381682    2.354419   -2.139038
  C     -1.510531    3.134269    0.014809
  C     -1.885249    2.301112    1.152925
  C     -1.952598   -0.064322    2.752640
  C     -2.296601   -3.090603    0.009930
  C     -2.725974   -2.289814    1.131385
  C     -2.431218   -2.610965   -1.295280
  C     -1.284438   -1.602322   -3.072850
  C     -0.731051    1.206029   -2.992775
  C     -1.542519    2.554972   -1.245070
  C     -2.812963    1.286091    0.916112
  C     -2.877112    0.093740    1.731592
  C     -3.281752   -1.020623    0.908143
  C     -3.005774   -1.292416   -1.524655
  C     -2.301056   -0.678086   -2.630831
  C     -2.019968    0.693642   -2.598395
  C     -2.467366    1.479594   -1.487562
  C     -3.164666    0.907387   -0.430569
  C     -3.425444   -0.523416   -0.441933
  H      0.672878    4.842939    4.543329
  C     -0.262399    5.419014    4.492965
  H     -0.387949    5.972862    5.435106
  H      0.600072    7.092609    3.405775
  C     -0.233314    6.381912    3.322571
  O      0.002422    5.682365    2.100264
  H     -1.098350    4.711996    4.392849
  C     -1.046885    5.101625    1.519037
  C     -0.588912    4.267164    0.312658
  O     -2.185357    5.242427    1.868045
  H     -1.177108    6.941938    3.242201
  C     -0.375431    5.263831   -0.832981
  H     -3.482668    5.974772   -3.072426
  O     -1.548371    5.653710   -1.328346
  H     -0.961032    6.083132   -3.256591
  O      0.683774    5.683864   -1.205770
  C     -1.507810    6.560764   -2.427752
  C     -2.933798    6.888647   -2.804058
  H     -2.950696    7.571975   -3.665753
  H     -3.457451    7.369188   -1.965049
  H     -0.935611    7.456260   -2.136530
  O      0.854026    8.740401    5.653023
  O     -0.321942    8.916961    5.697124

 Multiplicity           Mult            ....    2
 Number of Electrons    NEL             ....  461
 Basis Dimension        Dim             .... 1072

ORBITAL ENERGIES
----------------
                 SPIN UP ORBITALS
  NO   OCC          E(Eh)            E(eV)
   0   1.0000     -19.353373      -526.6321
   1   1.0000     -19.353084      -526.6242
   2   1.0000     -19.222062      -523.0589
   3   1.0000     -19.221429      -523.0417
   4   1.0000     -19.164895      -521.5033
   5   1.0000     -19.164826      -521.5014
   6   1.0000     -10.360719      -281.9295
   7   1.0000     -10.360561      -281.9252
   8   1.0000     -10.289190      -279.9831
   9   1.0000     -10.287770      -279.9445
  10   1.0000     -10.262991      -279.2702
  11   1.0000     -10.250477      -278.9297
  12   1.0000     -10.249461      -278.9020
  13   1.0000     -10.246309      -278.8162
  14   1.0000     -10.244617      -278.7702
  15   1.0000     -10.239152      -278.6215
  16   1.0000     -10.238336      -278.5993
  17   1.0000     -10.238108      -278.5931
  18   1.0000     -10.234916      -278.5062
  19   1.0000     -10.233610      -278.4707
  20   1.0000     -10.233191      -278.4593
  21   1.0000     -10.231556      -278.4148
  22   1.0000     -10.231112      -278.4027
  23   1.0000     -10.231020      -278.4002
  24   1.0000     -10.230769      -278.3934
  25   1.0000     -10.230565      -278.3878
  26   1.0000     -10.230494      -278.3859
  27   1.0000     -10.230131      -278.3760
  28   1.0000     -10.230057      -278.3740
  29   1.0000     -10.228885      -278.3421
  30   1.0000     -10.228761      -278.3387
  31   1.0000     -10.228086      -278.3204
  32   1.0000     -10.227987      -278.3177
  33   1.0000     -10.227495      -278.3043
  34   1.0000     -10.227426      -278.3024
  35   1.0000     -10.227299      -278.2989
  36   1.0000     -10.226549      -278.2785
  37   1.0000     -10.226483      -278.2768
  38   1.0000     -10.226277      -278.2711
  39   1.0000     -10.226214      -278.2694
  40   1.0000     -10.226092      -278.2661
  41   1.0000     -10.225851      -278.2596
  42   1.0000     -10.225811      -278.2585
  43   1.0000     -10.225692      -278.2552
  44   1.0000     -10.225403      -278.2474
  45   1.0000     -10.225149      -278.2404
  46   1.0000     -10.224751      -278.2296
  47   1.0000     -10.224573      -278.2248
  48   1.0000     -10.224394      -278.2199
  49   1.0000     -10.224167      -278.2137
  50   1.0000     -10.224107      -278.2121
  51   1.0000     -10.224001      -278.2092
  52   1.0000     -10.223853      -278.2052
  53   1.0000     -10.223796      -278.2036
  54   1.0000     -10.223373      -278.1921
  55   1.0000     -10.223348      -278.1915
  56   1.0000     -10.223113      -278.1850
  57   1.0000     -10.223086      -278.1843
  58   1.0000     -10.222200      -278.1602
  59   1.0000     -10.222140      -278.1586
  60   1.0000     -10.222072      -278.1567
  61   1.0000     -10.221768      -278.1485
  62   1.0000     -10.221587      -278.1435
  63   1.0000     -10.221442      -278.1396
  64   1.0000     -10.221369      -278.1376
  65   1.0000     -10.221237      -278.1340
  66   1.0000     -10.221226      -278.1337
  67   1.0000     -10.221023      -278.1282
  68   1.0000     -10.220558      -278.1155
  69   1.0000     -10.219679      -278.0916
  70   1.0000     -10.219399      -278.0840
  71   1.0000     -10.219133      -278.0768
  72   1.0000     -10.218407      -278.0570
  73   1.0000      -1.392213       -37.8840
  74   1.0000      -1.162087       -31.6220
  75   1.0000      -1.154626       -31.4190
  76   1.0000      -1.064319       -28.9616
  77   1.0000      -1.062069       -28.9004
  78   1.0000      -0.980088       -26.6695
  79   1.0000      -0.963245       -26.2112
  80   1.0000      -0.959872       -26.1194
  81   1.0000      -0.958237       -26.0750
  82   1.0000      -0.930361       -25.3164
  83   1.0000      -0.924779       -25.1645
  84   1.0000      -0.920733       -25.0544
  85   1.0000      -0.919999       -25.0344
  86   1.0000      -0.918677       -24.9985
  87   1.0000      -0.891928       -24.2706
  88   1.0000      -0.888642       -24.1812
  89   1.0000      -0.883032       -24.0285
  90   1.0000      -0.878701       -23.9107
  91   1.0000      -0.856657       -23.3108
  92   1.0000      -0.854608       -23.2551
  93   1.0000      -0.847471       -23.0609
  94   1.0000      -0.845905       -23.0182
  95   1.0000      -0.836816       -22.7709
  96   1.0000      -0.826203       -22.4821
  97   1.0000      -0.810719       -22.0608
  98   1.0000      -0.803990       -21.8777
  99   1.0000      -0.796414       -21.6715
 100   1.0000      -0.795570       -21.6486
 101   1.0000      -0.793192       -21.5839
 102   1.0000      -0.783394       -21.3172
 103   1.0000      -0.781007       -21.2523
 104   1.0000      -0.777513       -21.1572
 105   1.0000      -0.777089       -21.1457
 106   1.0000      -0.758472       -20.6391
 107   1.0000      -0.730596       -19.8805
 108   1.0000      -0.721070       -19.6213
 109   1.0000      -0.719840       -19.5879
 110   1.0000      -0.714257       -19.4359
 111   1.0000      -0.713677       -19.4201
 112   1.0000      -0.711910       -19.3721
 113   1.0000      -0.707674       -19.2568
 114   1.0000      -0.707245       -19.2451
 115   1.0000      -0.703703       -19.1487
 116   1.0000      -0.678596       -18.4655
 117   1.0000      -0.669980       -18.2311
 118   1.0000      -0.663371       -18.0512
 119   1.0000      -0.656962       -17.8768
 120   1.0000      -0.641246       -17.4492
 121   1.0000      -0.640227       -17.4215
 122   1.0000      -0.638559       -17.3761
 123   1.0000      -0.628997       -17.1159
 124   1.0000      -0.624585       -16.9958
 125   1.0000      -0.622844       -16.9484
 126   1.0000      -0.622288       -16.9333
 127   1.0000      -0.621344       -16.9076
 128   1.0000      -0.619010       -16.8441
 129   1.0000      -0.617524       -16.8037
 130   1.0000      -0.615051       -16.7364
 131   1.0000      -0.611478       -16.6392
 132   1.0000      -0.601189       -16.3592
 133   1.0000      -0.592745       -16.1294
 134   1.0000      -0.575516       -15.6606
 135   1.0000      -0.563461       -15.3325
 136   1.0000      -0.558511       -15.1979
 137   1.0000      -0.555069       -15.1042
 138   1.0000      -0.550312       -14.9747
 139   1.0000      -0.542016       -14.7490
 140   1.0000      -0.539775       -14.6880
 141   1.0000      -0.533453       -14.5160
 142   1.0000      -0.530497       -14.4356
 143   1.0000      -0.527654       -14.3582
 144   1.0000      -0.522902       -14.2289
 145   1.0000      -0.520830       -14.1725
 146   1.0000      -0.514468       -13.9994
 147   1.0000      -0.512201       -13.9377
 148   1.0000      -0.510854       -13.9010
 149   1.0000      -0.507530       -13.8106
 150   1.0000      -0.502221       -13.6661
 151   1.0000      -0.493937       -13.4407
 152   1.0000      -0.489499       -13.3199
 153   1.0000      -0.487973       -13.2784
 154   1.0000      -0.486892       -13.2490
 155   1.0000      -0.481359       -13.0984
 156   1.0000      -0.473321       -12.8797
 157   1.0000      -0.471810       -12.8386
 158   1.0000      -0.463584       -12.6148
 159   1.0000      -0.462659       -12.5896
 160   1.0000      -0.461529       -12.5589
 161   1.0000      -0.460008       -12.5175
 162   1.0000      -0.458919       -12.4878
 163   1.0000      -0.452881       -12.3235
 164   1.0000      -0.447365       -12.1734
 165   1.0000      -0.447136       -12.1672
 166   1.0000      -0.446940       -12.1619
 167   1.0000      -0.445161       -12.1134
 168   1.0000      -0.437670       -11.9096
 169   1.0000      -0.437009       -11.8916
 170   1.0000      -0.436047       -11.8654
 171   1.0000      -0.434903       -11.8343
 172   1.0000      -0.428460       -11.6590
 173   1.0000      -0.428174       -11.6512
 174   1.0000      -0.425155       -11.5691
 175   1.0000      -0.421790       -11.4775
 176   1.0000      -0.421110       -11.4590
 177   1.0000      -0.420263       -11.4359
 178   1.0000      -0.415668       -11.3109
 179   1.0000      -0.414843       -11.2884
 180   1.0000      -0.413113       -11.2414
 181   1.0000      -0.411845       -11.2069
 182   1.0000      -0.410309       -11.1651
 183   1.0000      -0.409922       -11.1545
 184   1.0000      -0.407364       -11.0849
 185   1.0000      -0.402689       -10.9577
 186   1.0000      -0.399988       -10.8842
 187   1.0000      -0.395871       -10.7722
 188   1.0000      -0.394857       -10.7446
 189   1.0000      -0.393031       -10.6949
 190   1.0000      -0.391080       -10.6418
 191   1.0000      -0.387104       -10.5336
 192   1.0000      -0.382992       -10.4218
 193   1.0000      -0.371801       -10.1172
 194   1.0000      -0.365847        -9.9552
 195   1.0000      -0.364542        -9.9197
 196   1.0000      -0.358793        -9.7632
 197   1.0000      -0.355612        -9.6767
 198   1.0000      -0.351907        -9.5759
 199   1.0000      -0.348741        -9.4897
 200   1.0000      -0.346550        -9.4301
 201   1.0000      -0.346018        -9.4156
 202   1.0000      -0.344413        -9.3719
 203   1.0000      -0.340460        -9.2644
 204   1.0000      -0.340101        -9.2546
 205   1.0000      -0.339082        -9.2269
 206   1.0000      -0.338598        -9.2137
 207   1.0000      -0.335222        -9.1219
 208   1.0000      -0.333903        -9.0860
 209   1.0000      -0.332445        -9.0463
 210   1.0000      -0.331583        -9.0228
 211   1.0000      -0.330106        -8.9826
 212   1.0000      -0.328533        -8.9398
 213   1.0000      -0.324513        -8.8304
 214   1.0000      -0.320915        -8.7325
 215   1.0000      -0.317085        -8.6283
 216   1.0000      -0.299238        -8.1427
 217   1.0000      -0.252287        -6.8651
 218   1.0000      -0.249079        -6.7778
 219   1.0000      -0.248585        -6.7643
 220   1.0000      -0.246924        -6.7191
 221   1.0000      -0.243300        -6.6205
 222   1.0000      -0.240985        -6.5575
 223   1.0000      -0.240293        -6.5387
 224   1.0000      -0.240065        -6.5325
 225   1.0000      -0.237131        -6.4527
 226   1.0000      -0.190974        -5.1967
 227   1.0000      -0.189671        -5.1612
 228   1.0000      -0.188507        -5.1295
 229   1.0000      -0.182674        -4.9708
 230   1.0000      -0.181302        -4.9335
 231   0.0000       0.039729         1.0811
 232   0.0000       0.041202         1.1212
 233   0.0000       0.042044         1.1441
 234   0.0000       0.088591         2.4107
 235   0.0000       0.090605         2.4655

                 SPIN DOWN ORBITALS
  NO   OCC          E(Eh)            E(eV)
   0   1.0000     -19.328319      -525.9503
   1   1.0000     -19.328236      -525.9481
   2   1.0000     -19.222060      -523.0588
   3   1.0000     -19.221432      -523.0418
   4   1.0000     -19.164924      -521.5041
   5   1.0000     -19.164832      -521.5016
   6   1.0000     -10.360734      -281.9299
   7   1.0000     -10.360547      -281.9248
   8   1.0000     -10.289190      -279.9831
   9   1.0000     -10.287765      -279.9443
  10   1.0000     -10.262993      -279.2702
  11   1.0000     -10.250514      -278.9307
  12   1.0000     -10.249434      -278.9013
  13   1.0000     -10.246211      -278.8136
  14   1.0000     -10.244691      -278.7722
  15   1.0000     -10.239022      -278.6180
  16   1.0000     -10.238715      -278.6096
  17   1.0000     -10.238198      -278.5955
  18   1.0000     -10.234835      -278.5040
  19   1.0000     -10.233539      -278.4687
  20   1.0000     -10.233191      -278.4593
  21   1.0000     -10.231501      -278.4133
  22   1.0000     -10.231025      -278.4004
  23   1.0000     -10.230953      -278.3984
  24   1.0000     -10.230739      -278.3926
  25   1.0000     -10.230483      -278.3856
  26   1.0000     -10.230454      -278.3848
  27   1.0000     -10.230150      -278.3765
  28   1.0000     -10.229901      -278.3698
  29   1.0000     -10.228782      -278.3393
  30   1.0000     -10.228629      -278.3351
  31   1.0000     -10.228024      -278.3187
  32   1.0000     -10.227869      -278.3145
  33   1.0000     -10.227464      -278.3034
  34   1.0000     -10.227354      -278.3005
  35   1.0000     -10.227255      -278.2978
  36   1.0000     -10.226451      -278.2759
  37   1.0000     -10.226381      -278.2740
  38   1.0000     -10.226239      -278.2701
  39   1.0000     -10.226218      -278.2695
  40   1.0000     -10.226113      -278.2667
  41   1.0000     -10.226015      -278.2640
  42   1.0000     -10.225757      -278.2570
  43   1.0000     -10.225582      -278.2522
  44   1.0000     -10.225542      -278.2511
  45   1.0000     -10.225425      -278.2480
  46   1.0000     -10.224861      -278.2326
  47   1.0000     -10.224816      -278.2314
  48   1.0000     -10.224760      -278.2299
  49   1.0000     -10.224584      -278.2251
  50   1.0000     -10.224422      -278.2207
  51   1.0000     -10.224380      -278.2195
  52   1.0000     -10.224253      -278.2161
  53   1.0000     -10.223796      -278.2036
  54   1.0000     -10.223730      -278.2018
  55   1.0000     -10.223597      -278.1982
  56   1.0000     -10.223333      -278.1910
  57   1.0000     -10.223065      -278.1838
  58   1.0000     -10.222600      -278.1711
  59   1.0000     -10.222439      -278.1667
  60   1.0000     -10.222306      -278.1631
  61   1.0000     -10.222168      -278.1593
  62   1.0000     -10.221983      -278.1543
  63   1.0000     -10.221978      -278.1542
  64   1.0000     -10.221962      -278.1537
  65   1.0000     -10.221907      -278.1522
  66   1.0000     -10.221547      -278.1424
  67   1.0000     -10.221291      -278.1355
  68   1.0000     -10.221274      -278.1350
  69   1.0000     -10.220240      -278.1069
  70   1.0000     -10.220211      -278.1061
  71   1.0000     -10.219856      -278.0964
  72   1.0000     -10.219239      -278.0796
  73   1.0000      -1.333315       -36.2813
  74   1.0000      -1.162094       -31.6222
  75   1.0000      -1.154636       -31.4192
  76   1.0000      -1.064349       -28.9624
  77   1.0000      -1.062097       -28.9011
  78   1.0000      -0.981054       -26.6958
  79   1.0000      -0.963652       -26.2223
  80   1.0000      -0.961178       -26.1550
  81   1.0000      -0.959520       -26.1099
  82   1.0000      -0.930971       -25.3330
  83   1.0000      -0.925629       -25.1877
  84   1.0000      -0.921699       -25.0807
  85   1.0000      -0.921476       -25.0746
  86   1.0000      -0.920021       -25.0350
  87   1.0000      -0.892698       -24.2915
  88   1.0000      -0.883924       -24.0528
  89   1.0000      -0.880626       -23.9631
  90   1.0000      -0.857908       -23.3449
  91   1.0000      -0.855367       -23.2757
  92   1.0000      -0.848402       -23.0862
  93   1.0000      -0.846162       -23.0252
  94   1.0000      -0.837315       -22.7845
  95   1.0000      -0.826250       -22.4834
  96   1.0000      -0.811162       -22.0728
  97   1.0000      -0.804652       -21.8957
  98   1.0000      -0.797375       -21.6977
  99   1.0000      -0.796525       -21.6745
 100   1.0000      -0.796118       -21.6635
 101   1.0000      -0.794929       -21.6311
 102   1.0000      -0.784480       -21.3468
 103   1.0000      -0.781930       -21.2774
 104   1.0000      -0.778176       -21.1752
 105   1.0000      -0.777770       -21.1642
 106   1.0000      -0.759172       -20.6581
 107   1.0000      -0.731529       -19.9059
 108   1.0000      -0.721266       -19.6266
 109   1.0000      -0.720551       -19.6072
 110   1.0000      -0.715315       -19.4647
 111   1.0000      -0.714748       -19.4493
 112   1.0000      -0.713439       -19.4137
 113   1.0000      -0.708161       -19.2701
 114   1.0000      -0.707870       -19.2621
 115   1.0000      -0.705466       -19.1967
 116   1.0000      -0.678993       -18.4763
 117   1.0000      -0.670646       -18.2492
 118   1.0000      -0.663843       -18.0641
 119   1.0000      -0.657315       -17.8865
 120   1.0000      -0.638934       -17.3863
 121   1.0000      -0.629292       -17.1239
 122   1.0000      -0.626264       -17.0415
 123   1.0000      -0.623842       -16.9756
 124   1.0000      -0.622790       -16.9470
 125   1.0000      -0.621858       -16.9216
 126   1.0000      -0.620210       -16.8768
 127   1.0000      -0.615879       -16.7589
 128   1.0000      -0.612144       -16.6573
 129   1.0000      -0.601644       -16.3716
 130   1.0000      -0.593634       -16.1536
 131   1.0000      -0.576055       -15.6752
 132   1.0000      -0.572621       -15.5818
 133   1.0000      -0.564084       -15.3495
 134   1.0000      -0.559235       -15.2176
 135   1.0000      -0.555868       -15.1259
 136   1.0000      -0.551050       -14.9948
 137   1.0000      -0.542674       -14.7669
 138   1.0000      -0.540403       -14.7051
 139   1.0000      -0.536617       -14.6021
 140   1.0000      -0.531387       -14.4598
 141   1.0000      -0.530800       -14.4438
 142   1.0000      -0.530111       -14.4251
 143   1.0000      -0.528840       -14.3905
 144   1.0000      -0.523622       -14.2485
 145   1.0000      -0.519584       -14.1386
 146   1.0000      -0.514997       -14.0138
 147   1.0000      -0.512713       -13.9516
 148   1.0000      -0.511200       -13.9104
 149   1.0000      -0.508148       -13.8274
 150   1.0000      -0.502346       -13.6695
 151   1.0000      -0.494318       -13.4511
 152   1.0000      -0.490285       -13.3413
 153   1.0000      -0.489265       -13.3136
 154   1.0000      -0.487410       -13.2631
 155   1.0000      -0.481637       -13.1060
 156   1.0000      -0.473994       -12.8980
 157   1.0000      -0.472632       -12.8610
 158   1.0000      -0.465741       -12.6735
 159   1.0000      -0.464649       -12.6437
 160   1.0000      -0.463869       -12.6225
 161   1.0000      -0.460776       -12.5384
 162   1.0000      -0.459681       -12.5086
 163   1.0000      -0.453873       -12.3505
 164   1.0000      -0.447730       -12.1833
 165   1.0000      -0.447663       -12.1815
 166   1.0000      -0.447568       -12.1789
 167   1.0000      -0.445638       -12.1264
 168   1.0000      -0.438028       -11.9193
 169   1.0000      -0.437738       -11.9115
 170   1.0000      -0.436713       -11.8836
 171   1.0000      -0.434965       -11.8360
 172   1.0000      -0.428956       -11.6725
 173   1.0000      -0.428523       -11.6607
 174   1.0000      -0.425660       -11.5828
 175   1.0000      -0.422697       -11.5022
 176   1.0000      -0.422106       -11.4861
 177   1.0000      -0.420862       -11.4522
 178   1.0000      -0.417225       -11.3533
 179   1.0000      -0.416698       -11.3389
 180   1.0000      -0.416050       -11.3213
 181   1.0000      -0.415188       -11.2978
 182   1.0000      -0.411873       -11.2076
 183   1.0000      -0.410996       -11.1838
 184   1.0000      -0.408129       -11.1057
 185   1.0000      -0.404418       -11.0048
 186   1.0000      -0.400593       -10.9007
 187   1.0000      -0.396543       -10.7905
 188   1.0000      -0.395502       -10.7622
 189   1.0000      -0.393693       -10.7129
 190   1.0000      -0.391533       -10.6542
 191   1.0000      -0.387220       -10.5368
 192   1.0000      -0.383320       -10.4307
 193   1.0000      -0.370470       -10.0810
 194   1.0000      -0.359382        -9.7793
 195   1.0000      -0.357480        -9.7275
 196   1.0000      -0.353350        -9.6152
 197   1.0000      -0.352750        -9.5988
 198   1.0000      -0.349488        -9.5101
 199   1.0000      -0.348559        -9.4848
 200   1.0000      -0.347281        -9.4500
 201   1.0000      -0.342617        -9.3231
 202   1.0000      -0.340615        -9.2686
 203   1.0000      -0.339626        -9.2417
 204   1.0000      -0.338966        -9.2237
 205   1.0000      -0.336009        -9.1433
 206   1.0000      -0.334937        -9.1141
 207   1.0000      -0.334672        -9.1069
 208   1.0000      -0.333132        -9.0650
 209   1.0000      -0.332106        -9.0371
 210   1.0000      -0.328747        -8.9457
 211   1.0000      -0.328339        -8.9346
 212   1.0000      -0.323671        -8.8075
 213   1.0000      -0.317178        -8.6308
 214   1.0000      -0.299374        -8.1464
 215   1.0000      -0.257474        -7.0062
 216   1.0000      -0.255255        -6.9458
 217   1.0000      -0.252994        -6.8843
 218   1.0000      -0.252240        -6.8638
 219   1.0000      -0.248534        -6.7630
 220   1.0000      -0.247958        -6.7473
 221   1.0000      -0.246635        -6.7113
 222   1.0000      -0.243386        -6.6229
 223   1.0000      -0.241430        -6.5697
 224   1.0000      -0.196967        -5.3597
 225   1.0000      -0.195708        -5.3255
 226   1.0000      -0.186202        -5.0668
 227   1.0000      -0.185588        -5.0501
 228   1.0000      -0.183399        -4.9905
 229   1.0000      -0.090891        -2.4733
 230   0.0000       0.024441         0.6651
 231   0.0000       0.025800         0.7021
 232   0.0000       0.040580         1.1042
 233   0.0000       0.041084         1.1179
 234   0.0000       0.067002         1.8232

LOEWDIN ATOMIC CHARGES AND SPIN POPULATIONS
-------------------------------------------
   0 C :   -0.020980   -0.036346
   1 C :   -0.009685    0.004232
   2 C :   -0.008262   -0.000201
   3 C :   -0.011406    0.006148
   4 C :   -0.018357   -0.023512
   5 C :   -0.034424   -0.066730
   6 C :   -0.023989   -0.040537
   7 C :   -0.034380   -0.068280
   8 C :   -0.008778    0.004639
   9 C :   -0.025796   -0.035782
  10 C :   -0.010264    0.004367
  11 C :   -0.012014   -0.006594
  12 C :   -0.027791   -0.044806
  13 C :   -0.025050   -0.035200
  14 C :   -0.010225   -0.004453
  15 C :   -0.011304   -0.001616
  16 C :   -0.011007    0.001755
  17 C :   -0.009346    0.007821
  18 C :   -0.012113   -0.000288
  19 C :   -0.026854   -0.037268
  20 C :   -0.011815   -0.005009
  21 C :   -0.005272    0.007879
  22 C :   -0.018676   -0.002112
  23 C :   -0.002929    0.005148
  24 C :   -0.008295    0.006306
  25 C :   -0.009441    0.005770
  26 C :   -0.011330   -0.002446
  27 C :   -0.023707   -0.040776
  28 C :   -0.014286   -0.004949
  29 C :   -0.031845   -0.063085
  30 C :   -0.019686   -0.024128
  31 C :   -0.006011   -0.005526
  32 C :    0.022449    0.001963
  33 C :   -0.037428   -0.047748
  34 C :   -0.034385   -0.076662
  35 C :   -0.009476    0.001609
  36 C :   -0.010187    0.004975
  37 C :   -0.018394   -0.028168
  38 C :   -0.022629   -0.035318
  39 C :   -0.008074    0.004164
  40 C :   -0.023740   -0.032194
  41 C :   -0.016988    0.007502
  42 C :    0.024265   -0.002627
  43 C :   -0.000680    0.007485
  44 C :   -0.012707   -0.004207
  45 C :   -0.013214   -0.001508
  46 C :   -0.029554   -0.048219
  47 C :   -0.021902   -0.037077
  48 C :   -0.010254   -0.000876
  49 C :   -0.010130    0.002422
  50 C :   -0.018130    0.006058
  51 C :   -0.016896   -0.019550
  52 C :   -0.011681   -0.008842
  53 C :   -0.035406   -0.070437
  54 C :   -0.010890    0.000491
  55 C :   -0.032527   -0.061658
  56 C :   -0.024950   -0.029437
  57 C :   -0.012199    0.003501
  58 C :   -0.022422   -0.041445
  59 C :   -0.006462    0.004175
  60 H :    0.036790    0.000030
  61 C :   -0.077706   -0.000417
  62 H :    0.025534   -0.000738
  63 H :    0.018451   -0.000274
  64 C :    0.077878    0.000278
  65 O :   -0.076200   -0.000131
  66 H :    0.039251   -0.000037
  67 C :    0.099480   -0.000269
  68 C :   -0.100277   -0.000303
  69 O :   -0.159111   -0.001467
  70 H :    0.019250    0.000189
  71 C :    0.099991   -0.000561
  72 H :    0.037707   -0.000001
  73 O :   -0.077772    0.000074
  74 H :    0.025052    0.000005
  75 O :   -0.154288    0.000053
  76 C :    0.083418    0.000000
  77 C :   -0.073816   -0.000003
  78 H :    0.030876   -0.000000
  79 H :    0.033160   -0.000000
  80 H :    0.019460    0.000003
  81 O :    0.007252    1.000558
  82 O :    0.005532    1.000214

  Mayer bond orders larger than 0.100000
B(  0-C ,  1-C ) :   1.1782 B(  0-C ,  3-C ) :   1.4415 B(  0-C ,  4-C ) :   1.2096
B(  1-C ,  2-C ) :   1.4500 B(  1-C ,  5-C ) :   1.2158 B(  2-C ,  6-C ) :   1.1840
B(  2-C ,  7-C ) :   1.2139 B(  3-C ,  8-C ) :   1.1795 B(  3-C ,  9-C ) :   1.2154
B(  4-C , 10-C ) :   1.4505 B(  4-C , 11-C ) :   1.1737 B(  5-C , 11-C ) :   1.2217
B(  5-C , 12-C ) :   1.3863 B(  6-C , 13-C ) :   1.2301 B(  6-C , 14-C ) :   1.4222
B(  7-C ,  9-C ) :   1.4002 B(  7-C , 15-C ) :   1.2042 B(  8-C , 16-C ) :   1.4846
B(  8-C , 17-C ) :   1.1754 B(  9-C , 18-C ) :   1.2160 B( 10-C , 16-C ) :   1.1767
B( 10-C , 19-C ) :   1.2114 B( 11-C , 20-C ) :   1.4456 B( 12-C , 14-C ) :   1.2138
B( 12-C , 21-C ) :   1.2106 B( 13-C , 15-C ) :   1.1649 B( 13-C , 22-C ) :   1.4331
B( 14-C , 23-C ) :   1.1863 B( 15-C , 24-C ) :   1.4472 B( 16-C , 25-C ) :   1.1777
B( 17-C , 18-C ) :   1.1839 B( 17-C , 26-C ) :   1.4799 B( 18-C , 27-C ) :   1.4374
B( 19-C , 28-C ) :   1.2217 B( 19-C , 29-C ) :   1.3951 B( 20-C , 29-C ) :   1.2193
B( 20-C , 30-C ) :   1.1730 B( 21-C , 30-C ) :   1.4519 B( 21-C , 31-C ) :   1.1784
B( 22-C , 32-C ) :   1.1318 B( 22-C , 33-C ) :   1.2154 B( 23-C , 31-C ) :   1.1396
B( 23-C , 32-C ) :   1.5347 B( 24-C , 27-C ) :   1.1730 B( 24-C , 34-C ) :   1.2126
B( 25-C , 28-C ) :   1.1801 B( 25-C , 35-C ) :   1.4821 B( 26-C , 35-C ) :   1.1786
B( 26-C , 36-C ) :   1.1792 B( 27-C , 37-C ) :   1.2156 B( 28-C , 38-C ) :   1.4344
B( 29-C , 39-C ) :   1.2063 B( 30-C , 40-C ) :   1.2010 B( 31-C , 41-C ) :   1.4836
B( 32-C , 42-C ) :   0.1521 B( 32-C , 68-C ) :   0.9382 B( 33-C , 34-C ) :   1.3686
B( 33-C , 43-C ) :   1.1946 B( 34-C , 44-C ) :   1.2235 B( 35-C , 45-C ) :   1.1779
B( 36-C , 37-C ) :   1.4457 B( 36-C , 46-C ) :   1.2136 B( 37-C , 44-C ) :   1.1706
B( 38-C , 47-C ) :   1.2217 B( 38-C , 48-C ) :   1.1753 B( 39-C , 40-C ) :   1.1790
B( 39-C , 48-C ) :   1.4550 B( 40-C , 49-C ) :   1.4453 B( 41-C , 49-C ) :   1.1767
B( 41-C , 50-C ) :   1.1407 B( 42-C , 43-C ) :   1.1449 B( 42-C , 50-C ) :   1.5149
B( 42-C , 68-C ) :   0.9414 B( 43-C , 51-C ) :   1.4593 B( 44-C , 52-C ) :   1.4380
B( 45-C , 46-C ) :   1.2263 B( 45-C , 47-C ) :   1.4309 B( 46-C , 53-C ) :   1.3899
B( 47-C , 54-C ) :   1.1766 B( 48-C , 55-C ) :   1.2116 B( 49-C , 56-C ) :   1.2165
B( 50-C , 57-C ) :   1.1867 B( 51-C , 52-C ) :   1.1596 B( 51-C , 58-C ) :   1.2178
B( 52-C , 53-C ) :   1.2175 B( 53-C , 59-C ) :   1.2108 B( 54-C , 55-C ) :   1.2142
B( 54-C , 59-C ) :   1.4522 B( 55-C , 56-C ) :   1.3987 B( 56-C , 57-C ) :   1.2010
B( 57-C , 58-C ) :   1.4333 B( 58-C , 59-C ) :   1.1858 B( 60-H , 61-C ) :   0.9677
B( 61-C , 62-H ) :   0.9660 B( 61-C , 64-C ) :   1.1027 B( 61-C , 66-H ) :   0.9659
B( 63-H , 64-C ) :   0.9611 B( 64-C , 65-O ) :   0.8954 B( 64-C , 70-H ) :   0.9510
B( 65-O , 67-C ) :   1.2367 B( 67-C , 68-C ) :   0.8670 B( 67-C , 69-O ) :   2.1554
B( 68-C , 71-C ) :   0.8868 B( 71-C , 73-O ) :   1.2318 B( 71-C , 75-O ) :   2.1512
B( 72-H , 77-C ) :   0.9704 B( 73-O , 76-C ) :   0.8892 B( 74-H , 76-C ) :   0.9606
B( 76-C , 77-C ) :   1.0874 B( 76-C , 80-H ) :   0.9606 B( 77-C , 78-H ) :   0.9657
B( 77-C , 79-H ) :   0.9715 B( 81-O , 82-O ) :   1.8319

Dispersion correction           -0.079141708
FINAL SINGLE POINT ENERGY     -3007.323109051361

DIPOLE MOMENT
-------------

Method             : SCF
Type of density    : Electron Density
Multiplicity       :   2
Irrep              :   0
Energy             : -3007.2439673431185838 Eh
Relativity type    :
Basis              : AO
                                X                 Y                 Z
Electronic contribution:     11.392130576     -48.833716369      -3.677108484
Nuclear contribution   :    -11.770216462      51.780109729       4.244255174
                        -----------------------------------------
Total Dipole Moment    :     -0.378085885       2.946393360       0.567146690
                        -----------------------------------------
Magnitude (a.u.)       :      3.024208680
Magnitude (Debye)      :      7.686927574

Rotational constants in cm-1:             0.002209             0.001211             0.001111
Rotational constants in MHz :            66.210511            36.309632            33.292837

                             ****ORCA TERMINATED NORMALLY****
TOTAL RUN TIME: 0 days 1 hours 31 minutes 21 seconds 833 msec
