                         Program Version 6.0.1  -  RELEASE   -
|  1> ! B3LYP def2-SVP OPT TightSCF D3BJ
|  2>
|  3>
|  4> %maxcore 4000
|  5>
|  6> %pal
|  7> nprocs 28
|  8> end
|  9>
| 10> * xyz 0 1
| 11> O        2.7210600761      1.0832376383     -0.0001510332
| 12> O        2.7210794396     -1.0832419814     -0.0004122870
| 13> N        2.1503728454     -0.0000218379     -0.0001593443
| 14> N       -3.4745380812      0.0000055801      0.0012848393
| 15> C        0.6905288595     -0.0000018501      0.0000891668
| 16> C       -2.1103810173     -0.0000001179      0.0004401593
| 17> C        0.0003351126      1.2162003143      0.0003383714
| 18> C        0.0003360811     -1.2162025009      0.0000061340
| 19> C       -1.3858459997      1.2163606335      0.0005047746
| 20> C       -1.3858468463     -1.2163598600      0.0001728853
| 21> H        0.5691142954      2.1455814069      0.0003548830
| 22> H        0.5691223088     -2.1455809175     -0.0002270924
| 23> H       -1.9290788518      2.1648181612      0.0007315711
| 24> H       -1.9290857576     -2.1648142635      0.0001370269
| 25> H       -3.9941298338      0.8654646063     -0.0030400889
| 26> H       -3.9941426307     -0.8654450113     -0.0032699658
| 27> O       -3.2183972414     -1.7883533786     -2.3112346892
| 28> H       -2.2675206983     -1.7632303891     -2.4847217106
| 29> H       -3.3746172201     -0.9655695071     -1.8279616494
| 30> *
| 31>
| 32>
| 33>                          ****END OF INPUT****
 Total Charge           Charge          ....    0
 Multiplicity           Mult            ....    1
 Number of Electrons    NEL             ....   82
 Basis Dimension        Dim             ....  194

ORBITAL ENERGIES
----------------

  NO   OCC          E(Eh)            E(eV)
   0   2.0000     -19.148339      -521.0528
   1   2.0000     -19.148308      -521.0519
   2   2.0000     -19.123959      -520.3894
   3   2.0000     -14.547243      -395.8506
   4   2.0000     -14.378486      -391.2585
   5   2.0000     -10.267329      -279.3882
   6   2.0000     -10.236444      -278.5478
   7   2.0000     -10.218541      -278.0606
   8   2.0000     -10.218042      -278.0471
   9   2.0000     -10.213007      -277.9100
  10   2.0000     -10.210466      -277.8409
  11   2.0000      -1.208314       -32.8799
  12   2.0000      -1.033474       -28.1223
  13   2.0000      -0.986814       -26.8526
  14   2.0000      -0.952673       -25.9235
  15   2.0000      -0.872533       -23.7428
  16   2.0000      -0.787217       -21.4213
  17   2.0000      -0.768106       -20.9012
  18   2.0000      -0.689038       -18.7497
  19   2.0000      -0.643108       -17.4998
  20   2.0000      -0.597197       -16.2506
  21   2.0000      -0.561200       -15.2710
  22   2.0000      -0.559752       -15.2316
  23   2.0000      -0.534816       -14.5531
  24   2.0000      -0.528953       -14.3936
  25   2.0000      -0.516630       -14.0582
  26   2.0000      -0.496464       -13.5095
  27   2.0000      -0.464416       -12.6374
  28   2.0000      -0.461858       -12.5678
  29   2.0000      -0.448184       -12.1957
  30   2.0000      -0.427639       -11.6367
  31   2.0000      -0.426080       -11.5942
  32   2.0000      -0.372794       -10.1442
  33   2.0000      -0.371702       -10.1145
  34   2.0000      -0.346688        -9.4339
  35   2.0000      -0.302566        -8.2332
  36   2.0000      -0.300610        -8.1800
  37   2.0000      -0.298933        -8.1344
  38   2.0000      -0.281773        -7.6674
  39   2.0000      -0.280959        -7.6453
  40   2.0000      -0.240042        -6.5319
  41   0.0000      -0.077827        -2.1178
  42   0.0000      -0.032430        -0.8825
  43   0.0000       0.009458         0.2574
  44   0.0000       0.027691         0.7535
  45   0.0000       0.061590         1.6759

MULLIKEN ATOMIC CHARGES
-----------------------
   0 O :   -0.254217
   1 O :   -0.253694
   2 N :    0.236059
   3 N :   -0.067250
   4 C :    0.168513
   5 C :    0.072995
   6 C :   -0.019809
   7 C :   -0.023305
   8 C :   -0.018928
   9 C :   -0.058588
  10 H :    0.006296
  11 H :    0.006920
  12 H :   -0.029746
  13 H :   -0.016030
  14 H :    0.123095
  15 H :    0.131862
  16 O :   -0.293122
  17 H :    0.160903
  18 H :    0.128047
Sum of atomic charges:    0.0000000

LOEWDIN ATOMIC CHARGES
----------------------
   0 O :   -0.219567
   1 O :   -0.219166
   2 N :    0.277142
   3 N :    0.011417
   4 C :   -0.057743
   5 C :    0.032992
   6 C :    0.010139
   7 C :    0.006496
   8 C :   -0.060316
   9 C :   -0.065821
  10 H :    0.042129
  11 H :    0.042342
  12 H :    0.027736
  13 H :    0.028940
  14 H :    0.082008
  15 H :    0.080575
  16 O :   -0.138038
  17 H :    0.075308
  18 H :    0.043428

  Mayer bond orders larger than 0.100000
B(  0-O ,  1-O ) :   0.2687 B(  0-O ,  2-N ) :   1.5339 B(  1-O ,  2-N ) :   1.5344
B(  2-N ,  4-C ) :   0.8862 B(  3-N ,  5-C ) :   1.2443 B(  3-N , 14-H ) :   0.9435
B(  3-N , 15-H ) :   0.9380 B(  4-C ,  6-C ) :   1.3485 B(  4-C ,  7-C ) :   1.3430
B(  5-C ,  8-C ) :   1.2928 B(  5-C ,  9-C ) :   1.2833 B(  6-C ,  8-C ) :   1.3859
B(  6-C , 10-H ) :   0.9808 B(  7-C ,  9-C ) :   1.3753 B(  7-C , 11-H ) :   0.9844
B(  8-C , 12-H ) :   0.9883 B(  9-C , 13-H ) :   0.9847 B( 16-O , 17-H ) :   0.9958
B( 16-O , 18-H ) :   0.9874

Dispersion correction           -0.033581375
FINAL SINGLE POINT ENERGY      -567.847463052682
Dispersion correction             ... done (  0.0 sec)
Dispersion correction           -0.033256757
FINAL SINGLE POINT ENERGY      -567.848287083039
Dispersion correction             ... done (  0.0 sec)
Dispersion correction           -0.033138223
FINAL SINGLE POINT ENERGY      -567.848530111514
Dispersion correction             ... done (  0.0 sec)
FINAL SINGLE POINT ENERGY      -567.847829870259
FINAL SINGLE POINT ENERGY      -567.848808850657
FINAL SINGLE POINT ENERGY      -567.848927420551
FINAL SINGLE POINT ENERGY      -567.849508453310
FINAL SINGLE POINT ENERGY      -567.849829169969
FINAL SINGLE POINT ENERGY      -567.850155032560
FINAL SINGLE POINT ENERGY      -567.850433753221
FINAL SINGLE POINT ENERGY      -567.854812286746
FINAL SINGLE POINT ENERGY      -567.854971412982
FINAL SINGLE POINT ENERGY      -567.855122008691
FINAL SINGLE POINT ENERGY      -567.855298325629
FINAL SINGLE POINT ENERGY      -567.855434308070
FINAL SINGLE POINT ENERGY      -567.855536763497
FINAL SINGLE POINT ENERGY      -567.855627872725
Dispersion correction           -0.031655145
FINAL SINGLE POINT ENERGY      -567.855717668049
Dispersion correction             ... done (  0.0 sec)
Dispersion correction           -0.031676340
FINAL SINGLE POINT ENERGY      -567.855827011823
Dispersion correction             ... done (  0.0 sec)

CARTESIAN COORDINATES (ANGSTROEM)
---------------------------------
  O      2.840256    1.092355    0.891360
  O      2.914931   -0.888856    0.018234
  N      2.310419    0.116410    0.372858
  N     -3.253299    0.245363   -0.441617
  C      0.870450    0.156394    0.159596
  C     -1.906323    0.228299   -0.249714
  C      0.145547    1.294787    0.522348
  C      0.225211   -0.945610   -0.413622
  C     -1.226234    1.334109    0.318532
  C     -1.143516   -0.911784   -0.618317
  H      0.677136    2.138513    0.962273
  H      0.815465   -1.817006   -0.695667
  H     -1.788445    2.226377    0.605271
  H     -1.656971   -1.759458   -1.074559
  H     -3.766947    1.102575   -0.296148
  H     -3.704460   -0.530987   -0.920206
  O     -4.134018   -2.194411   -1.775419
  H     -4.011657   -3.033176   -1.310117
  H     -3.849179   -2.371045   -2.682207

Dispersion correction           -0.031669275
FINAL SINGLE POINT ENERGY      -567.855933862540
Dispersion correction             ... done (  0.0 sec)
                             ****ORCA TERMINATED NORMALLY****
TOTAL RUN TIME: 0 days 0 hours 12 minutes 44 seconds 766 msec
