                         Program Version 6.0.1  -  RELEASE   -
|  1> ! B3LYP def2-SVP OPT TightSCF D3BJ
|  2>
|  3>
|  4> %maxcore 4000
|  5>
|  6> %pal
|  7> nprocs 28
|  8> end
|  9>
| 10> * xyz 0 1
| 11>   O           2.87656454481530      0.80946736044741      0.85448586843088
| 12>   O           2.77269454055090     -0.96332361473995     -0.38661897010862
| 13>   N           2.25631860375275     -0.01379303197640      0.19054341415907
| 14>   N          -3.31609013918579      0.60001008431837     -0.25324649621293
| 15>   C           0.81333896557414      0.14809414426896      0.08299865461338
| 16>   C          -1.96962543044383      0.46299698683321     -0.13618345678840
| 17>   C           0.18470214933138      1.21989962469034      0.72617610121268
| 18>   C           0.06824333123552     -0.77000220606507     -0.66682495697242
| 19>   C          -1.18810381366417      1.37450755005098      0.61824733952640
| 20>   C          -1.30328911401727     -0.61787816379992     -0.77384903771329
| 21>   H           0.78645369438837      1.92056392988080      1.30439758660884
| 22>   H           0.59062973303391     -1.59252417757548     -1.15474257469431
| 23>   H          -1.67967150193527      2.21126312299230      1.12177886679087
| 24>   H          -1.89604969454516     -1.32186327456378     -1.36035890188371
| 25>   H          -3.77358973331552      1.42198128897123      0.11404941187973
| 26>   H          -3.83388426346398     -0.03368054682233     -0.86047080254104
| 27>   O          -4.42149511493337     -1.26354997779503     -2.20390295994003
| 28>   H          -4.43640404806728     -2.22459337264894     -2.09216661046373
| 29>   H          -4.05430323851051     -1.12482184376669     -3.08898417660328
| 30> *
| 31>
| 32>
| 33>                          ****END OF INPUT****
 Total Charge           Charge          ....    0
 Multiplicity           Mult            ....    1
 Number of Electrons    NEL             ....   82
Dispersion correction           -0.031641482
FINAL SINGLE POINT ENERGY      -567.855893800650
Dispersion correction             ... done (  0.0 sec)
Dispersion correction           -0.031658623
FINAL SINGLE POINT ENERGY      -567.855923084762
Dispersion correction             ... done (  0.0 sec)
Dispersion correction           -0.031672472
FINAL SINGLE POINT ENERGY      -567.855874274506
Dispersion correction             ... done (  0.0 sec)
FINAL SINGLE POINT ENERGY      -567.855958988136
FINAL SINGLE POINT ENERGY      -567.855974782718
FINAL SINGLE POINT ENERGY      -567.855987309663
FINAL SINGLE POINT ENERGY      -567.856008213613
FINAL SINGLE POINT ENERGY      -567.856013397272
FINAL SINGLE POINT ENERGY      -567.856020630180
FINAL SINGLE POINT ENERGY      -567.856023376483
FINAL SINGLE POINT ENERGY      -567.856115661070
FINAL SINGLE POINT ENERGY      -567.856117862671
FINAL SINGLE POINT ENERGY      -567.856120113049
FINAL SINGLE POINT ENERGY      -567.856125311742
FINAL SINGLE POINT ENERGY      -567.856131636061
FINAL SINGLE POINT ENERGY      -567.856138573084
FINAL SINGLE POINT ENERGY      -567.856141514999
Dispersion correction             ... done (  0.0 sec)
Dispersion correction           -0.031742120
FINAL SINGLE POINT ENERGY      -567.856141911838
Dispersion correction             ... done (  0.0 sec)
Dispersion correction           -0.031742287
FINAL SINGLE POINT ENERGY      -567.856141674243
Dispersion correction             ... done (  0.0 sec)
                    ***********************HURRAY********************

CARTESIAN COORDINATES (ANGSTROEM)
---------------------------------
  O      2.851580    0.721164    0.936697
  O      2.748893   -0.983785   -0.396271
  N      2.234785   -0.054161    0.215471
  N     -3.310522    0.685960   -0.334476
  C      0.798588    0.141008    0.075816
  C     -1.970622    0.517342   -0.194246
  C      0.171400    1.189173    0.759243
  C      0.059079   -0.722300   -0.741417
  C     -1.195078    1.375377    0.626628
  C     -1.306181   -0.537311   -0.874991
  H      0.775615    1.843519    1.387134
  H      0.577989   -1.528280   -1.259667
  H     -1.686606    2.193421    1.159754
  H     -1.899659   -1.199471   -1.506953
  H     -3.781783    1.439697    0.144151
  H     -3.845398    0.061027   -0.935996
  O     -4.420667   -1.335297   -2.147287
  H     -4.292209   -2.245349   -1.844690
  H     -4.032764   -1.318979   -3.033570

 Multiplicity           Mult            ....    1
 Number of Electrons    NEL             ....   82
 Basis Dimension        Dim             ....  194

ORBITAL ENERGIES
----------------

  NO   OCC          E(Eh)            E(eV)
   0   2.0000     -19.177743      -521.8529
   1   2.0000     -19.132671      -520.6265
   2   2.0000     -19.132239      -520.6147
   3   2.0000     -14.531654      -395.4264
   4   2.0000     -14.342966      -390.2919
   5   2.0000     -10.246378      -278.8181
   6   2.0000     -10.217862      -278.0422
   7   2.0000     -10.202040      -277.6116
   8   2.0000     -10.201611      -277.6000
   9   2.0000     -10.192914      -277.3633
  10   2.0000     -10.192666      -277.3565
  11   2.0000      -1.192186       -32.4410
  12   2.0000      -1.033860       -28.1328
  13   2.0000      -1.017077       -27.6761
  14   2.0000      -0.923788       -25.1375
  15   2.0000      -0.852817       -23.2063
  16   2.0000      -0.767233       -20.8775
  17   2.0000      -0.750224       -20.4146
  18   2.0000      -0.667413       -18.1612
  19   2.0000      -0.623229       -16.9589
  20   2.0000      -0.577491       -15.7143
  21   2.0000      -0.565706       -15.3936
  22   2.0000      -0.540789       -14.7156
  23   2.0000      -0.532002       -14.4765
  24   2.0000      -0.516071       -14.0430
  25   2.0000      -0.513395       -13.9702
  26   2.0000      -0.481058       -13.0902
  27   2.0000      -0.448724       -12.2104
  28   2.0000      -0.445952       -12.1350
  29   2.0000      -0.432513       -11.7693
  30   2.0000      -0.420482       -11.4419
  31   2.0000      -0.408357       -11.1120
  32   2.0000      -0.398170       -10.8348
  33   2.0000      -0.359854        -9.7921
  34   2.0000      -0.341578        -9.2948
  35   2.0000      -0.325889        -8.8679
  36   2.0000      -0.286302        -7.7907
  37   2.0000      -0.285201        -7.7607
  38   2.0000      -0.266553        -7.2533
  39   2.0000      -0.266155        -7.2424
  40   2.0000      -0.214045        -5.8245
  41   0.0000      -0.060962        -1.6589
  42   0.0000      -0.015337        -0.4174
  43   0.0000       0.006689         0.1820
  44   0.0000       0.030748         0.8367
  45   0.0000       0.060611         1.6493

MULLIKEN ATOMIC CHARGES
-----------------------
   0 O :   -0.264336
   1 O :   -0.266730
   2 N :    0.236880
   3 N :   -0.048952
   4 C :    0.156427
   5 C :    0.098922
   6 C :   -0.018197
   7 C :   -0.012387
   8 C :   -0.041108
   9 C :   -0.028268
  10 H :   -0.000712
  11 H :   -0.005125
  12 H :   -0.037016
  13 H :   -0.091567
  14 H :    0.109320
  15 H :    0.105293
  16 O :   -0.248046
  17 H :    0.177785
  18 H :    0.177817
Sum of atomic charges:    0.0000000

LOEWDIN ATOMIC CHARGES
----------------------
   0 O :   -0.229224
   1 O :   -0.231581
   2 N :    0.276857
   3 N :    0.002494
   4 C :   -0.068835
   5 C :    0.049608
   6 C :    0.008174
   7 C :    0.005043
   8 C :   -0.069103
   9 C :   -0.071799
  10 H :    0.039058
  11 H :    0.037212
  12 H :    0.024423
  13 H :    0.008260
  14 H :    0.074678
  15 H :    0.056573
  16 O :   -0.092890
  17 H :    0.090569
  18 H :    0.090483

  Mayer bond orders larger than 0.100000
B(  0-O ,  1-O ) :   0.2597 B(  0-O ,  2-N ) :   1.5269 B(  1-O ,  2-N ) :   1.5246
B(  2-N ,  4-C ) :   0.8994 B(  3-N ,  5-C ) :   1.3401 B(  3-N , 14-H ) :   0.9435
B(  3-N , 15-H ) :   0.8971 B(  4-C ,  6-C ) :   1.3370 B(  4-C ,  7-C ) :   1.3342
B(  5-C ,  8-C ) :   1.2603 B(  5-C ,  9-C ) :   1.2653 B(  6-C ,  8-C ) :   1.4002
B(  6-C , 10-H ) :   0.9808 B(  7-C ,  9-C ) :   1.3920 B(  7-C , 11-H ) :   0.9812
B(  8-C , 12-H ) :   0.9869 B(  9-C , 13-H ) :   0.9699 B( 15-H , 16-O ) :   0.1279
B( 16-O , 17-H ) :   0.9870 B( 16-O , 18-H ) :   0.9869

Dispersion correction           -0.031740830
FINAL SINGLE POINT ENERGY      -567.856141948010

DIPOLE MOMENT
-------------

Method             : SCF
Type of density    : Electron Density
Multiplicity       :   1
Irrep              :   0
Energy             :  -567.8244011175552259 Eh
Relativity type    :
Basis              : AO
                                X                 Y                 Z
Electronic contribution:     11.269335279       0.677178919       2.832356942
Nuclear contribution   :    -14.343457987      -1.023554939      -3.734100849
                        -----------------------------------------
Total Dipole Moment    :     -3.074122709      -0.346376019      -0.901743907
                        -----------------------------------------
Magnitude (a.u.)       :      3.222320414
Magnitude (Debye)      :      8.190487583

Rotational constants in cm-1:             0.083390             0.016940             0.014108
Rotational constants in MHz :          2499.978267           507.850587           422.938427

                             ****ORCA TERMINATED NORMALLY****
TOTAL RUN TIME: 0 days 0 hours 6 minutes 31 seconds 788 msec
