                         Program Version 6.0.1  -  RELEASE   -
|  1> ! B3LYP def2-SVP SP TightSCF ALLPOP KEEPDENS
|  2>
|  3> %maxcore 5000
|  4>
|  5> %pal
|  6> nprocs 20
|  7> end
|  8>
|  9> * xyz 0 1
| 10>   N           4.06292886581677      6.04623510531870      1.31762492343915
| 11>   C           8.28257007366378      6.23290592021494      0.86581766903798
| 12>   C           5.44205190144358      6.09246916333936      1.15581075234146
| 13>   C           7.62864080073461      5.01496571001043      1.10371842151585
| 14>   C           7.48194449488938      7.38245852834506      0.79269238860978
| 15>   C           6.24306873054784      4.93796562752222      1.24089148499968
| 16>   C           6.09666002117143      7.32416705847381      0.94096817480399
| 17>   C           9.77757903962833      6.30176705322173      0.67685009463080
| 18>   H           8.21853211096871      4.09634402549100      1.17882529686643
| 19>   H           7.95573115379763      8.35568599771858      0.63095358086984
| 20>   H           5.76828800442279      3.96839318391348      1.41891130074265
| 21>   H           5.50848495050407      8.24642690504186      0.93499454959998
| 22>   H          10.18812520720124      7.25425531650257      1.04772697063372
| 23>   H          10.28894398361010      5.48410868925447      1.20839145133900
| 24>   H          10.05746077674800      6.22167829471366     -0.38918668496441
| 25>   H           3.56332193661414      6.70732272396501      0.72336644061206
| 26>   H           3.66099231312535      5.11578120006296      1.27151657169093
| 27>   O           3.71539151922119      7.53862329823828     -1.24872861919369
| 28>   H           4.60217381712537      7.89084377394259     -1.07863029109737
| 29>   H           3.90491029876533      6.65571242470898     -1.59735447647788
| 30> *
| 31>
| 32>                          ****END OF INPUT****

CARTESIAN COORDINATES (ANGSTROEM)
---------------------------------
  N      4.062929    6.046235    1.317625
  C      8.282570    6.232906    0.865818
  C      5.442052    6.092469    1.155811
  C      7.628641    5.014966    1.103718
  C      7.481944    7.382459    0.792692
  C      6.243069    4.937966    1.240891
  C      6.096660    7.324167    0.940968
  C      9.777579    6.301767    0.676850
  H      8.218532    4.096344    1.178825
  H      7.955731    8.355686    0.630954
  H      5.768288    3.968393    1.418911
  H      5.508485    8.246427    0.934995
  H     10.188125    7.254255    1.047727
  H     10.288944    5.484109    1.208391
  H     10.057461    6.221678   -0.389187
  H      3.563322    6.707323    0.723366
  H      3.660992    5.115781    1.271517
  O      3.715392    7.538623   -1.248729
  H      4.602174    7.890844   -1.078630
  H      3.904910    6.655712   -1.597354

 Total Charge           Charge          ....    0
 Multiplicity           Mult            ....    1
 Number of Electrons    NEL             ....   68
 Basis Dimension        Dim             ....  181

ORBITAL ENERGIES
----------------

  NO   OCC          E(Eh)            E(eV)
   0   2.0000     -19.138903      -520.7960
   1   2.0000     -14.319025      -389.6405
   2   2.0000     -10.218911      -278.0707
   3   2.0000     -10.181240      -277.0456
   4   2.0000     -10.180498      -277.0254
   5   2.0000     -10.179521      -276.9989
   6   2.0000     -10.178506      -276.9712
   7   2.0000     -10.177384      -276.9407
   8   2.0000     -10.176757      -276.9236
   9   2.0000      -0.996986       -27.1294
  10   2.0000      -0.899551       -24.4780
  11   2.0000      -0.826337       -22.4858
  12   2.0000      -0.740888       -20.1606
  13   2.0000      -0.729313       -19.8456
  14   2.0000      -0.659854       -17.9555
  15   2.0000      -0.602470       -16.3940
  16   2.0000      -0.571387       -15.5482
  17   2.0000      -0.526030       -14.3140
  18   2.0000      -0.509436       -13.8625
  19   2.0000      -0.500772       -13.6267
  20   2.0000      -0.453391       -12.3374
  21   2.0000      -0.434555       -11.8248
  22   2.0000      -0.420339       -11.4380
  23   2.0000      -0.411420       -11.1953
  24   2.0000      -0.410607       -11.1732
  25   2.0000      -0.389746       -10.6055
  26   2.0000      -0.376316       -10.2401
  27   2.0000      -0.366557        -9.9745
  28   2.0000      -0.350652        -9.5417
  29   2.0000      -0.332514        -9.0482
  30   2.0000      -0.312015        -8.4904
  31   2.0000      -0.293687        -7.9916
  32   2.0000      -0.248575        -6.7641
  33   2.0000      -0.196276        -5.3409
  34   0.0000      -0.005149        -0.1401
  35   0.0000       0.014246         0.3877
  36   0.0000       0.043366         1.1800
  37   0.0000       0.070690         1.9236
  38   0.0000       0.076812         2.0902

MULLIKEN ATOMIC CHARGES
-----------------------
   0 N :   -0.080381
   1 C :   -0.036557
   2 C :    0.039052
   3 C :   -0.016888
   4 C :   -0.017764
   5 C :   -0.022991
   6 C :   -0.067858
   7 C :    0.081334
   8 H :   -0.037328
   9 H :   -0.037486
  10 H :   -0.050756
  11 H :   -0.031368
  12 H :    0.009768
  13 H :    0.007984
  14 H :    0.021997
  15 H :    0.095348
  16 H :    0.094366
  17 O :   -0.270171
  18 H :    0.158338
  19 H :    0.161362
Sum of atomic charges:    0.0000000

LOEWDIN ATOMIC CHARGES
----------------------
   0 N :   -0.040613
   1 C :   -0.058627
   2 C :    0.013875
   3 C :   -0.019793
   4 C :   -0.023512
   5 C :   -0.069892
   6 C :   -0.078835
   7 C :   -0.046277
   8 H :    0.022543
   9 H :    0.022252
  10 H :    0.019223
  11 H :    0.020700
  12 H :    0.027485
  13 H :    0.027057
  14 H :    0.030556
  15 H :    0.050915
  16 H :    0.064450
  17 O :   -0.116933
  18 H :    0.074504
  19 H :    0.080921

  Mayer bond orders larger than 0.100000
B(  0-N ,  2-C ) :   1.2089 B(  0-N , 15-H ) :   0.9226 B(  0-N , 16-H ) :   0.9514
B(  1-C ,  3-C ) :   1.3807 B(  1-C ,  4-C ) :   1.3786 B(  1-C ,  7-C ) :   1.0648
B(  2-C ,  5-C ) :   1.3332 B(  2-C ,  6-C ) :   1.3233 B(  3-C ,  5-C ) :   1.3794
B(  3-C ,  8-H ) :   0.9802 B(  4-C ,  6-C ) :   1.3769 B(  4-C ,  9-H ) :   0.9818
B(  5-C , 10-H ) :   0.9841 B(  6-C , 11-H ) :   0.9781 B(  7-C , 12-H ) :   0.9581
B(  7-C , 13-H ) :   0.9583 B(  7-C , 14-H ) :   0.9530 B( 15-H , 17-O ) :   0.1184
B( 17-O , 18-H ) :   0.9877 B( 17-O , 19-H ) :   0.9944

FINAL SINGLE POINT ENERGY      -402.808426338458

DIPOLE MOMENT
-------------

Method             : SCF
Type of density    : Electron Density
Multiplicity       :   1
Irrep              :   0
Energy             :  -402.8084263384576502 Eh
Relativity type    :
Basis              : AO
                                X                 Y                 Z
Electronic contribution:     -2.772496433      -0.543136200       1.517794041
Nuclear contribution   :      2.930872136       0.075971757      -2.036103551
                        -----------------------------------------
Total Dipole Moment    :      0.158375703      -0.467164443      -0.518309510
                        -----------------------------------------
Magnitude (a.u.)       :      0.715520948
Magnitude (Debye)      :      1.818709716

Rotational constants in cm-1:             0.092433             0.030477             0.025642
Rotational constants in MHz :          2771.071162           913.691540           768.716453

                             ****ORCA TERMINATED NORMALLY****
TOTAL RUN TIME: 0 days 0 hours 0 minutes 9 seconds 141 msec
