                         Program Version 6.0.1  -  RELEASE   -
|  1> ! wB97X-D3 def2-TZVPP TightSCF RIJCOSX SP
|  2>
|  3> %pal
|  4> nprocs 28
|  5> end
|  6>
|  7> %maxcore 5000
|  8>
|  9> * xyz 0 1
| 10>   O           0.66682257536022      3.32136578460567     -0.04006185996138
| 11>   O          -4.34542734981792     -0.24145515781635      1.28118425438153
| 12>   C           1.07886970867755      1.00077002099324      0.27016870142815
| 13>   C          -0.36042824522005      0.72571571862680      0.53322188052572
| 14>   C          -2.31672020401728     -0.70944272029050      0.17134057523420
| 15>   C          -0.98470666642384     -0.37765576102888     -0.06593962022539
| 16>   C           3.36611891832958      0.13967302626302      0.00560137987693
| 17>   C           2.00634108613910     -0.04413353773989      0.27712763382446
| 18>   C           1.55303077686770      2.29579045496292     -0.02161838971257
| 19>   C          -1.12433096733100      1.51705775549572      1.39664916407750
| 20>   C          -3.05506217521853      0.09939437802395      1.05012736985386
| 21>   C          -2.98913982202573     -1.87192970565432     -0.52375896938130
| 22>   C           4.31965393335137     -1.03905737195672      0.04044157914734
| 23>   C           3.80224874772150      1.43101737673388     -0.28530680659103
| 24>   C          -2.45478706910594      1.20416624286237      1.65622355005236
| 25>   C           2.90570471085851      2.49747879309090     -0.29578469998319
| 26>   C          -3.80399060534295     -1.42542074475187     -1.71092391154779
| 27>   C           3.88975707430927     -2.16539189820768     -0.85926390386943
| 28>   C          -5.12566319508118     -1.54571820139412     -1.82045115188140
| 29>   C           3.61160582986809     -3.40490751358096     -0.45627481936959
| 30>   H          -0.40919850111866     -1.00043150276166     -0.75819683971732
| 31>   H           1.64947421567528     -1.05102863174057      0.51463287812061
| 32>   H          -0.67349888704084      2.38715651750499      1.87625384312586
| 33>   H          -2.21339549972201     -2.57910054377649     -0.86021213199474
| 34>   H          -3.63668257374476     -2.40824608478311      0.18622906250593
| 35>   H           5.32197408912867     -0.69343347921597     -0.26300915477992
| 36>   H           4.41763822118247     -1.41354052811986      1.07351539845508
| 37>   H           4.85776776349832      1.61661304738454     -0.50444081828580
| 38>   H          -3.03930156989854      1.82733934312377      2.34102987293219
| 39>   H           3.25937116575767      3.50695159607418     -0.53035977107256
| 40>   H          -3.23854916252000     -0.94875229642524     -2.52211364300274
| 41>   H           3.79033219437747     -1.91267059837625     -1.92266080640305
| 42>   H           1.12234568285361      4.12826699649769     -0.29743856468011
| 43>   H          -4.74281341635792      0.39526089332308      1.88227388052648
| 44>   H          -5.65929410962331     -1.19152251141149     -2.70648461078273
| 45>   H          -5.72319048135719     -1.99539377996614     -1.02111592548902
| 46>   H           3.29853178705123     -4.17855864191031     -1.16229261077110
| 47>   H           3.68939201996006     -3.69382673465834      0.59738798543398
| 48> *
| 49>
| 50>                          ****END OF INPUT****

CARTESIAN COORDINATES (ANGSTROEM)
---------------------------------
  O      0.666823    3.321366   -0.040062
  O     -4.345427   -0.241455    1.281184
  C      1.078870    1.000770    0.270169
  C     -0.360428    0.725716    0.533222
  C     -2.316720   -0.709443    0.171341
  C     -0.984707   -0.377656   -0.065940
  C      3.366119    0.139673    0.005601
  C      2.006341   -0.044134    0.277128
  C      1.553031    2.295790   -0.021618
  C     -1.124331    1.517058    1.396649
  C     -3.055062    0.099394    1.050127
  C     -2.989140   -1.871930   -0.523759
  C      4.319654   -1.039057    0.040442
  C      3.802249    1.431017   -0.285307
  C     -2.454787    1.204166    1.656224
  C      2.905705    2.497479   -0.295785
  C     -3.803991   -1.425421   -1.710924
  C      3.889757   -2.165392   -0.859264
  C     -5.125663   -1.545718   -1.820451
  C      3.611606   -3.404908   -0.456275
  H     -0.409199   -1.000432   -0.758197
  H      1.649474   -1.051029    0.514633
  H     -0.673499    2.387157    1.876254
  H     -2.213395   -2.579101   -0.860212
  H     -3.636683   -2.408246    0.186229
  H      5.321974   -0.693433   -0.263009
  H      4.417638   -1.413541    1.073515
  H      4.857768    1.616613   -0.504441
  H     -3.039302    1.827339    2.341030
  H      3.259371    3.506952   -0.530360
  H     -3.238549   -0.948752   -2.522114
  H      3.790332   -1.912671   -1.922661
  H      1.122346    4.128267   -0.297439
  H     -4.742813    0.395261    1.882274
  H     -5.659294   -1.191523   -2.706485
  H     -5.723190   -1.995394   -1.021116
  H      3.298532   -4.178559   -1.162293
  H      3.689392   -3.693827    0.597388

 Total Charge           Charge          ....    0
 Multiplicity           Mult            ....    1
 Number of Electrons    NEL             ....  142
 Basis Dimension        Dim             ....  872

ORBITAL ENERGIES
----------------

  NO   OCC          E(Eh)            E(eV)
   0   2.0000     -19.264486      -524.2133
   1   2.0000     -19.262430      -524.1574
   2   2.0000     -10.343431      -281.4591
   3   2.0000     -10.338186      -281.3163
   4   2.0000     -10.288754      -279.9712
   5   2.0000     -10.285085      -279.8714
   6   2.0000     -10.284359      -279.8516
   7   2.0000     -10.284100      -279.8446
   8   2.0000     -10.283291      -279.8226
   9   2.0000     -10.282437      -279.7993
  10   2.0000     -10.282108      -279.7904
  11   2.0000     -10.282047      -279.7887
  12   2.0000     -10.278522      -279.6928
  13   2.0000     -10.278444      -279.6907
  14   2.0000     -10.278363      -279.6885
  15   2.0000     -10.277826      -279.6739
  16   2.0000     -10.277427      -279.6630
  17   2.0000     -10.275681      -279.6155
  18   2.0000     -10.271124      -279.4915
  19   2.0000     -10.261809      -279.2380
  20   2.0000      -1.186157       -32.2770
  21   2.0000      -1.183483       -32.2042
  22   2.0000      -0.985567       -26.8187
  23   2.0000      -0.968549       -26.3556
  24   2.0000      -0.921158       -25.0660
  25   2.0000      -0.912397       -24.8276
  26   2.0000      -0.886585       -24.1252
  27   2.0000      -0.861605       -23.4455
  28   2.0000      -0.858176       -23.3522
  29   2.0000      -0.832522       -22.6541
  30   2.0000      -0.793061       -21.5803
  31   2.0000      -0.785715       -21.3804
  32   2.0000      -0.746889       -20.3239
  33   2.0000      -0.725996       -19.7553
  34   2.0000      -0.714964       -19.4552
  35   2.0000      -0.678302       -18.4575
  36   2.0000      -0.661830       -18.0093
  37   2.0000      -0.655823       -17.8459
  38   2.0000      -0.646469       -17.5913
  39   2.0000      -0.643106       -17.4998
  40   2.0000      -0.599709       -16.3189
  41   2.0000      -0.598805       -16.2943
  42   2.0000      -0.573529       -15.6065
  43   2.0000      -0.562208       -15.2985
  44   2.0000      -0.552146       -15.0247
  45   2.0000      -0.546639       -14.8748
  46   2.0000      -0.535107       -14.5610
  47   2.0000      -0.533154       -14.5078
  48   2.0000      -0.529944       -14.4205
  49   2.0000      -0.527779       -14.3616
  50   2.0000      -0.517502       -14.0819
  51   2.0000      -0.505622       -13.7587
  52   2.0000      -0.503454       -13.6997
  53   2.0000      -0.496529       -13.5112
  54   2.0000      -0.492074       -13.3900
  55   2.0000      -0.483449       -13.1553
  56   2.0000      -0.468157       -12.7392
  57   2.0000      -0.454835       -12.3767
  58   2.0000      -0.452122       -12.3029
  59   2.0000      -0.445761       -12.1298
  60   2.0000      -0.436789       -11.8856
  61   2.0000      -0.432293       -11.7633
  62   2.0000      -0.429650       -11.6914
  63   2.0000      -0.424663       -11.5557
  64   2.0000      -0.417927       -11.3724
  65   2.0000      -0.356588        -9.7033
  66   2.0000      -0.348726        -9.4893
  67   2.0000      -0.345404        -9.3989
  68   2.0000      -0.330576        -8.9954
  69   2.0000      -0.310961        -8.4617
  70   2.0000      -0.285180        -7.7602
  71   0.0000       0.044943         1.2230
  72   0.0000       0.062037         1.6881
  73   0.0000       0.071173         1.9367
  74   0.0000       0.085858         2.3363
  75   0.0000       0.101241         2.7549

MULLIKEN ATOMIC CHARGES
-----------------------
   0 O :   -0.298200
   1 O :   -0.297236
   2 C :    0.034982
   3 C :    0.091257
   4 C :   -0.032472
   5 C :   -0.173593
   6 C :   -0.044026
   7 C :   -0.151159
   8 C :    0.204909
   9 C :   -0.145782
  10 C :    0.236375
  11 C :   -0.085915
  12 C :   -0.076116
  13 C :   -0.101821
  14 C :   -0.165321
  15 C :   -0.179097
  16 C :   -0.142841
  17 C :   -0.138267
  18 C :   -0.209242
  19 C :   -0.221107
  20 H :    0.107320
  21 H :    0.120734
  22 H :    0.108568
  23 H :    0.086127
  24 H :    0.088360
  25 H :    0.080167
  26 H :    0.087780
  27 H :    0.105380
  28 H :    0.083156
  29 H :    0.082503
  30 H :    0.105980
  31 H :    0.111496
  32 H :    0.180274
  33 H :    0.179976
  34 H :    0.099011
  35 H :    0.080434
  36 H :    0.102564
  37 H :    0.084844
Sum of atomic charges:    0.0000000

LOEWDIN ATOMIC CHARGES
----------------------
   0 O :    0.356242
   1 O :    0.357028
   2 C :   -0.058756
   3 C :   -0.074739
   4 C :   -0.072928
   5 C :    0.015402
   6 C :   -0.088830
   7 C :    0.021198
   8 C :   -0.186458
   9 C :    0.005749
  10 C :   -0.188495
  11 C :   -0.025397
  12 C :   -0.025838
  13 C :   -0.013905
  14 C :   -0.037006
  15 C :   -0.038944
  16 C :   -0.035330
  17 C :   -0.036266
  18 C :   -0.000003
  19 C :   -0.004069
  20 H :    0.031986
  21 H :    0.035845
  22 H :    0.028144
  23 H :    0.033550
  24 H :    0.036441
  25 H :    0.034081
  26 H :    0.036474
  27 H :    0.024290
  28 H :    0.017277
  29 H :    0.017216
  30 H :    0.019560
  31 H :    0.021824
  32 H :   -0.110288
  33 H :   -0.109289
  34 H :    0.002385
  35 H :    0.004474
  36 H :    0.003802
  37 H :    0.003575

  Mayer bond orders larger than 0.100000
B(  0-O ,  8-C ) :   1.1245 B(  0-O , 32-H ) :   1.0072 B(  1-O , 10-C ) :   1.1228
B(  1-O , 33-H ) :   1.0106 B(  2-C ,  3-C ) :   0.8831 B(  2-C ,  7-C ) :   1.4260
B(  2-C ,  8-C ) :   1.3282 B(  3-C ,  5-C ) :   1.3991 B(  3-C ,  9-C ) :   1.3705
B(  4-C ,  5-C ) :   1.4476 B(  4-C , 10-C ) :   1.3499 B(  4-C , 11-C ) :   0.9219
B(  5-C , 20-H ) :   0.9599 B(  6-C ,  7-C ) :   1.4228 B(  6-C , 12-C ) :   0.9286
B(  6-C , 13-C ) :   1.4039 B(  7-C , 21-H ) :   0.9467 B(  8-C , 15-C ) :   1.4126
B(  9-C , 14-C ) :   1.4828 B(  9-C , 22-H ) :   0.9596 B( 10-C , 14-C ) :   1.3850
B( 11-C , 16-C ) :   0.9277 B( 11-C , 23-H ) :   1.0131 B( 11-C , 24-H ) :   0.9966
B( 12-C , 17-C ) :   0.9323 B( 12-C , 25-H ) :   1.0012 B( 12-C , 26-H ) :   0.9983
B( 13-C , 15-C ) :   1.4563 B( 13-C , 27-H ) :   0.9603 B( 14-C , 28-H ) :   0.9634
B( 15-C , 29-H ) :   0.9653 B( 16-C , 18-C ) :   1.9245 B( 16-C , 30-H ) :   0.9767
B( 17-C , 19-C ) :   1.9071 B( 17-C , 31-H ) :   0.9801 B( 18-C , 34-H ) :   0.9930
B( 18-C , 35-H ) :   0.9965 B( 19-C , 36-H ) :   0.9965 B( 19-C , 37-H ) :   0.9971

Dispersion correction           -0.015841678
FINAL SINGLE POINT ENERGY      -847.243376104599

DIPOLE MOMENT
-------------

Method             : SCF
Type of density    : Electron Density
Multiplicity       :   1
Irrep              :   0
Energy             :  -847.2275344267616219 Eh
Relativity type    :
Basis              : AO
                                X                 Y                 Z
Electronic contribution:     -1.878625966      10.656263931       4.569626580
Nuclear contribution   :      2.199504509      -9.854718116      -4.319736557
                        -----------------------------------------
Total Dipole Moment    :      0.320878543       0.801545816       0.249890024
                        -----------------------------------------
Magnitude (a.u.)       :      0.898823541
Magnitude (Debye)      :      2.284627878

Rotational constants in cm-1:             0.016394             0.006256             0.005009
Rotational constants in MHz :           491.493255           187.537701           150.170242

                             ****ORCA TERMINATED NORMALLY****
TOTAL RUN TIME: 0 days 0 hours 0 minutes 58 seconds 718 msec
