                         Program Version 6.0.1  -  RELEASE   -
|  1> ! B3LYP def2-SVP SP TightSCF ChelpG KEEPDENS Hirshfeld
|  2>
|  3> %maxcore 3000
|  4>
|  5> %pal
|  6> nprocs 40
|  7> end
|  8>
|  9> * xyz 0 1
| 10> N       -5.3174829863      0.4948935383     13.0974295220
| 11> C       -1.0849498531      0.4948235526     13.1270639427
| 12> C       -3.9414636480      0.4948422994     13.1061897949
| 13> C       -1.8183183841     -0.7007875981     13.1247456122
| 14> C       -1.8183224345      1.6904935410     13.1240904017
| 15> C       -3.2116661579     -0.7109131828     13.1138819580
| 16> C       -3.2116207690      1.7006260247     13.1132252661
| 17> C        0.4234046558      0.4949776556     13.1020667148
| 18> H       -1.2847457968     -1.6562641058     13.1335875948
| 19> H       -1.2847468569      2.6459788131     13.1324129103
| 20> H       -3.7485947959     -1.6641054541     13.1158741909
| 21> H       -3.7485542962      2.6538187383     13.1146984405
| 22> H        0.8357238226      1.3824581337     13.6077939327
| 23> H        0.8356141236     -0.3977692526     13.5984521735
| 24> H        0.8136682132      0.5004584006     12.0681274128
| 25> H       -5.8346403902      1.3604807795     13.0924126170
| 26> H       -5.8347078515     -0.3706566465     13.0928878246
| 27> C       15.3232583121      1.8910220124     -0.8132115614
| 28> C       -1.3520150741    -14.4035357443      0.0048150967
| 29> C       -0.6264150741    -13.1934357443      0.0044150967
| 30> C       -0.6262150741    -15.6135357443      0.0044150967
| 31> C       18.0283646472    -11.5715364938     13.1300201451
| 32> C       17.3037646472    -12.7879364938     13.1299201451
| 33> C       18.0283646472    -14.0043364938     13.1297201451
| 34> C       19.4144646472    -11.5717364938     13.1298201451
| 35> C       20.1046646472    -12.7879364938     13.1296201451
| 36> C       19.4144646472    -14.0041364938     13.1295201451
| 37> C        0.7672849259    -13.2006357443      0.0038150967
| 38> C        0.7674849259    -15.6061357443      0.0038150967
| 39> C        1.4809849259    -14.4033357443      0.0035150967
| 40> C       13.9365583121      1.8965220124     -0.8314115614
| 41> H       15.8651583121      2.7953220124     -0.5238115614
| 42> H       13.3945583121      2.8034220124     -0.5568115614
| 43> N       -2.7267150741    -14.4036357443      0.0063150967
| 44> N       15.9396646472    -12.7879364938     13.1308201451
| 45> N       21.5645646472    -12.7879364938     13.1293201451
| 46> O       22.1352646472    -11.7047364938     13.1293201451
| 47> O       22.1352646472    -13.8711364938     13.1291201451
| 48> H       -1.1689150741    -12.2434357443      0.0047150967
| 49> H       -1.1685150741    -16.5636357443      0.0047150967
| 50> H       17.4850646472    -10.6231364938     13.1302201451
| 51> H       19.9832646472    -10.6423364938     13.1299201451
| 52> H       17.4850646472    -14.9527364938     13.1296201451
| 53> H       19.9832646472    -14.9335364938     13.1293201451
| 54> H        1.3039849259    -16.5590357443      0.0035150967
| 55> H        1.3036849259    -12.2476357443      0.0035150967
| 56> H        2.5728849259    -14.4032357443      0.0029150967
| 57> H       15.4200646472    -11.9224364938     13.1265201451
| 58> H       15.4200646472    -13.6533364938     13.1262201451
| 59> H       -3.2442150741    -15.2692357443      0.0005150967
| 60> H       -3.2443150741    -13.5382357443      0.0005150967
| 61> C       16.0483583121      0.7294220124     -1.1646115614
| 62> H       17.9345583121      1.5462220124     -0.8842115614
| 63> C       13.2148583121      0.7443220124     -1.2006115614
| 64> C       11.7843583121      0.7519220124     -1.2189115614
| 65> N       17.4147583121      0.7220220124     -1.1470115614
| 66> N       10.6220583121      0.7580220124     -1.2336115614
| 67> C       15.3202583121     -0.4246779876     -1.5345115614
| 68> C       13.9335583121     -0.4154779876     -1.5516115614
| 69> H       17.9324583121     -0.1068779876     -1.3991115614
| 70> H       15.8597583121     -1.3346779876     -1.8101115614
| 71> H       13.3890583121     -1.3166779876     -1.8400115614
| 72> *
| 73>
| 74>                          ****END OF INPUT****

CARTESIAN COORDINATES (ANGSTROEM)
---------------------------------
  N     -5.317483    0.494894   13.097430
  C     -1.084950    0.494824   13.127064
  C     -3.941464    0.494842   13.106190
  C     -1.818318   -0.700788   13.124746
  C     -1.818322    1.690494   13.124090
  C     -3.211666   -0.710913   13.113882
  C     -3.211621    1.700626   13.113225
  C      0.423405    0.494978   13.102067
  H     -1.284746   -1.656264   13.133588
  H     -1.284747    2.645979   13.132413
  H     -3.748595   -1.664105   13.115874
  H     -3.748554    2.653819   13.114698
  H      0.835724    1.382458   13.607794
  H      0.835614   -0.397769   13.598452
  H      0.813668    0.500458   12.068127
  H     -5.834640    1.360481   13.092413
  H     -5.834708   -0.370657   13.092888
  C     15.323258    1.891022   -0.813212
  C     -1.352015  -14.403536    0.004815
  C     -0.626415  -13.193436    0.004415
  C     -0.626215  -15.613536    0.004415
  C     18.028365  -11.571536   13.130020
  C     17.303765  -12.787936   13.129920
  C     18.028365  -14.004336   13.129720
  C     19.414465  -11.571736   13.129820
  C     20.104665  -12.787936   13.129620
  C     19.414465  -14.004136   13.129520
  C      0.767285  -13.200636    0.003815
  C      0.767485  -15.606136    0.003815
  C      1.480985  -14.403336    0.003515
  C     13.936558    1.896522   -0.831412
  H     15.865158    2.795322   -0.523812
  H     13.394558    2.803422   -0.556812
  N     -2.726715  -14.403636    0.006315
  N     15.939665  -12.787936   13.130820
  N     21.564565  -12.787936   13.129320
  O     22.135265  -11.704736   13.129320
  O     22.135265  -13.871136   13.129120
  H     -1.168915  -12.243436    0.004715
  H     -1.168515  -16.563636    0.004715
  H     17.485065  -10.623136   13.130220
  H     19.983265  -10.642336   13.129920
  H     17.485065  -14.952736   13.129620
  H     19.983265  -14.933536   13.129320
  H      1.303985  -16.559036    0.003515
  H      1.303685  -12.247636    0.003515
  H      2.572885  -14.403236    0.002915
  H     15.420065  -11.922436   13.126520
  H     15.420065  -13.653336   13.126220
  H     -3.244215  -15.269236    0.000515
  H     -3.244315  -13.538236    0.000515
  C     16.048358    0.729422   -1.164612
  H     17.934558    1.546222   -0.884212
  C     13.214858    0.744322   -1.200612
  C     11.784358    0.751922   -1.218912
  N     17.414758    0.722022   -1.147012
  N     10.622058    0.758022   -1.233612
  C     15.320258   -0.424678   -1.534512
  C     13.933558   -0.415478   -1.551612
  H     17.932458   -0.106878   -1.399112
  H     15.859758   -1.334678   -1.810112
  H     13.389058   -1.316678   -1.840012

 Total Charge           Charge          ....    0
 Multiplicity           Mult            ....    1
 Number of Electrons    NEL             ....  242
 Basis Dimension        Dim             ....  616

ORBITAL ENERGIES
----------------

  NO   OCC          E(Eh)            E(eV)
   0   2.0000     -19.140249      -520.8327
   1   2.0000     -19.140166      -520.8304
   2   2.0000     -14.539196      -395.6316
   3   2.0000     -14.364139      -390.8681
   4   2.0000     -14.358448      -390.7132
   5   2.0000     -14.330620      -389.9560
   6   2.0000     -14.327661      -389.8755
   7   2.0000     -14.306550      -389.3010
   8   2.0000     -10.257468      -279.1199
   9   2.0000     -10.251713      -278.9633
  10   2.0000     -10.226501      -278.2772
  11   2.0000     -10.221444      -278.1396
  12   2.0000     -10.217531      -278.0332
  13   2.0000     -10.214895      -277.9614
  14   2.0000     -10.209586      -277.8170
  15   2.0000     -10.209552      -277.8160
  16   2.0000     -10.208762      -277.7945
  17   2.0000     -10.208731      -277.7937
  18   2.0000     -10.208635      -277.7911
  19   2.0000     -10.202585      -277.6265
  20   2.0000     -10.202568      -277.6260
  21   2.0000     -10.198290      -277.5096
  22   2.0000     -10.198281      -277.5093
  23   2.0000     -10.176909      -276.9278
  24   2.0000     -10.176789      -276.9245
  25   2.0000     -10.172756      -276.8148
  26   2.0000     -10.172326      -276.8031
  27   2.0000     -10.172274      -276.8017
  28   2.0000     -10.171290      -276.7749
  29   2.0000     -10.171189      -276.7721
  30   2.0000     -10.169217      -276.7185
  31   2.0000     -10.169193      -276.7178
  32   2.0000     -10.168989      -276.7123
  33   2.0000     -10.165034      -276.6046
  34   2.0000      -1.200367       -32.6637
  35   2.0000      -1.025556       -27.9068
  36   2.0000      -0.939144       -25.5554
  37   2.0000      -0.933380       -25.3986
  38   2.0000      -0.904172       -24.6038
  39   2.0000      -0.900977       -24.5168
  40   2.0000      -0.879971       -23.9452
  41   2.0000      -0.862538       -23.4709
  42   2.0000      -0.847039       -23.0491
  43   2.0000      -0.819612       -22.3028
  44   2.0000      -0.816315       -22.2131
  45   2.0000      -0.777244       -21.1499
  46   2.0000      -0.758851       -20.6494
  47   2.0000      -0.754504       -20.5311
  48   2.0000      -0.750708       -20.4278
  49   2.0000      -0.735392       -20.0110
  50   2.0000      -0.723860       -19.6972
  51   2.0000      -0.721416       -19.6307
  52   2.0000      -0.706848       -19.2343
  53   2.0000      -0.678692       -18.4681
  54   2.0000      -0.656154       -17.8549
  55   2.0000      -0.637994       -17.3607
  56   2.0000      -0.632997       -17.2247
  57   2.0000      -0.628709       -17.1080
  58   2.0000      -0.597665       -16.2633
  59   2.0000      -0.597632       -16.2624
  60   2.0000      -0.587547       -15.9880
  61   2.0000      -0.586955       -15.9719
  62   2.0000      -0.569187       -15.4884
  63   2.0000      -0.553409       -15.0590
  64   2.0000      -0.551289       -15.0013
  65   2.0000      -0.545033       -14.8311
  66   2.0000      -0.539978       -14.6935
  67   2.0000      -0.533564       -14.5190
  68   2.0000      -0.525747       -14.3063
  69   2.0000      -0.520984       -14.1767
  70   2.0000      -0.517760       -14.0890
  71   2.0000      -0.513245       -13.9661
  72   2.0000      -0.511221       -13.9110
  73   2.0000      -0.510282       -13.8855
  74   2.0000      -0.488658       -13.2971
  75   2.0000      -0.467567       -12.7231
  76   2.0000      -0.457415       -12.4469
  77   2.0000      -0.456292       -12.4163
  78   2.0000      -0.452269       -12.3069
  79   2.0000      -0.450625       -12.2621
  80   2.0000      -0.448365       -12.2006
  81   2.0000      -0.439934       -11.9712
  82   2.0000      -0.435354       -11.8466
  83   2.0000      -0.432709       -11.7746
  84   2.0000      -0.421657       -11.4739
  85   2.0000      -0.421064       -11.4577
  86   2.0000      -0.418057       -11.3759
  87   2.0000      -0.414808       -11.2875
  88   2.0000      -0.409291       -11.1374
  89   2.0000      -0.408961       -11.1284
  90   2.0000      -0.406717       -11.0673
  91   2.0000      -0.405654       -11.0384
  92   2.0000      -0.403897       -10.9906
  93   2.0000      -0.403288       -10.9740
  94   2.0000      -0.376775       -10.2526
  95   2.0000      -0.368493       -10.0272
  96   2.0000      -0.368423       -10.0253
  97   2.0000      -0.364439        -9.9169
  98   2.0000      -0.363838        -9.9005
  99   2.0000      -0.363046        -9.8790
 100   2.0000      -0.349104        -9.4996
 101   2.0000      -0.343715        -9.3530
 102   2.0000      -0.340635        -9.2691
 103   2.0000      -0.336944        -9.1687
 104   2.0000      -0.331144        -9.0109
 105   2.0000      -0.324692        -8.8353
 106   2.0000      -0.317635        -8.6433
 107   2.0000      -0.307147        -8.3579
 108   2.0000      -0.303778        -8.2662
 109   2.0000      -0.293583        -7.9888
 110   2.0000      -0.292296        -7.9538
 111   2.0000      -0.292137        -7.9494
 112   2.0000      -0.274079        -7.4581
 113   2.0000      -0.273854        -7.4519
 114   2.0000      -0.271099        -7.3770
 115   2.0000      -0.241986        -6.5848
 116   2.0000      -0.239729        -6.5234
 117   2.0000      -0.226684        -6.1684
 118   2.0000      -0.217246        -5.9116
 119   2.0000      -0.192622        -5.2415
 120   2.0000      -0.185843        -5.0570
 121   0.0000      -0.068483        -1.8635
 122   0.0000      -0.028814        -0.7841
 123   0.0000      -0.023305        -0.6342
 124   0.0000      -0.020360        -0.5540
 125   0.0000       0.005766         0.1569

MULLIKEN ATOMIC CHARGES
-----------------------
   0 N :   -0.082586
   1 C :   -0.039608
   2 C :    0.092384
   3 C :   -0.017814
   4 C :   -0.017783
   5 C :   -0.033370
   6 C :   -0.033319
   7 C :    0.082097
   8 H :   -0.041101
   9 H :   -0.040711
  10 H :   -0.054661
  11 H :   -0.054337
  12 H :    0.005603
  13 H :    0.005014
  14 H :    0.021689
  15 H :    0.104308
  16 H :    0.104193
  17 C :   -0.032609
  18 C :    0.086457
  19 C :   -0.035653
  20 C :   -0.035733
  21 C :   -0.032923
  22 C :    0.105236
  23 C :   -0.032912
  24 C :   -0.018882
  25 C :    0.161687
  26 C :   -0.018832
  27 C :    0.016030
  28 C :    0.016001
  29 C :    0.006954
  30 C :    0.040714
  31 H :   -0.036094
  32 H :   -0.011167
  33 N :   -0.082626
  34 N :   -0.054573
  35 N :    0.235918
  36 O :   -0.259150
  37 O :   -0.258961
  38 H :   -0.051277
  39 H :   -0.051951
  40 H :   -0.032860
  41 H :    0.002719
  42 H :   -0.032840
  43 H :    0.002892
  44 H :   -0.025139
  45 H :   -0.024212
  46 H :   -0.030213
  47 H :    0.116779
  48 H :    0.116702
  49 H :    0.105601
  50 H :    0.105761
  51 C :    0.095546
  52 H :    0.114973
  53 C :   -0.101836
  54 C :   -0.124097
  55 N :   -0.061243
  56 N :    0.039899
  57 C :   -0.032591
  58 C :    0.040667
  59 H :    0.115030
  60 H :   -0.036055
  61 H :   -0.011136
Sum of atomic charges:    0.0000000

LOEWDIN ATOMIC CHARGES
----------------------
   0 N :   -0.026577
   1 C :   -0.063465
   2 C :    0.025366
   3 C :   -0.020804
   4 C :   -0.020592
   5 C :   -0.072965
   6 C :   -0.072752
   7 C :   -0.046645
   8 H :    0.021235
   9 H :    0.021402
  10 H :    0.017207
  11 H :    0.017334
  12 H :    0.025777
  13 H :    0.025577
  14 H :    0.029992
  15 H :    0.069984
  16 H :    0.069926
  17 C :   -0.066313
  18 C :    0.030268
  19 C :   -0.075344
  20 C :   -0.075686
  21 C :   -0.064176
  22 C :    0.047879
  23 C :   -0.064144
  24 C :    0.009696
  25 C :   -0.062557
  26 C :    0.009773
  27 C :   -0.016362
  28 C :   -0.016746
  29 C :   -0.069125
  30 C :    0.018318
  31 H :    0.025323
  32 H :    0.037413
  33 N :   -0.023641
  34 N :    0.003314
  35 N :    0.276862
  36 O :   -0.224132
  37 O :   -0.223959
  38 H :    0.017655
  39 H :    0.017373
  40 H :    0.026116
  41 H :    0.040562
  42 H :    0.026128
  43 H :    0.040634
  44 H :    0.024397
  45 H :    0.024779
  46 H :    0.020985
  47 H :    0.079031
  48 H :    0.078973
  49 H :    0.070694
  50 H :    0.070752
  51 C :    0.043324
  52 H :    0.077350
  53 C :   -0.104673
  54 C :   -0.031541
  55 N :   -0.003296
  56 N :   -0.088058
  57 C :   -0.066280
  58 C :    0.018285
  59 H :    0.077396
  60 H :    0.025333
  61 H :    0.037419

  Mayer bond orders larger than 0.100000
B(  0-N ,  2-C ) :   1.2346 B(  0-N , 15-H ) :   0.9509 B(  0-N , 16-H ) :   0.9509
B(  1-C ,  3-C ) :   1.3784 B(  1-C ,  4-C ) :   1.3780 B(  1-C ,  7-C ) :   1.0653
B(  2-C ,  5-C ) :   1.3160 B(  2-C ,  6-C ) :   1.3157 B(  3-C ,  5-C ) :   1.3930
B(  3-C ,  8-H ) :   0.9798 B(  4-C ,  6-C ) :   1.3934 B(  4-C ,  9-H ) :   0.9799
B(  5-C , 10-H ) :   0.9835 B(  6-C , 11-H ) :   0.9836 B(  7-C , 12-H ) :   0.9581
B(  7-C , 13-H ) :   0.9581 B(  7-C , 14-H ) :   0.9532 B( 17-C , 30-C ) :   1.4152
B( 17-C , 31-H ) :   0.9854 B( 17-C , 51-C ) :   1.2876 B( 18-C , 19-C ) :   1.3200
B( 18-C , 20-C ) :   1.3200 B( 18-C , 33-N ) :   1.2388 B( 19-C , 27-C ) :   1.4067
B( 19-C , 38-H ) :   0.9836 B( 20-C , 28-C ) :   1.4065 B( 20-C , 39-H ) :   0.9835
B( 21-C , 22-C ) :   1.2733 B( 21-C , 24-C ) :   1.3953 B( 21-C , 40-H ) :   0.9874
B( 22-C , 23-C ) :   1.2733 B( 22-C , 34-N ) :   1.2936 B( 23-C , 26-C ) :   1.3954
B( 23-C , 42-H ) :   0.9874 B( 24-C , 25-C ) :   1.3429 B( 24-C , 41-H ) :   0.9810
B( 25-C , 26-C ) :   1.3429 B( 25-C , 35-N ) :   0.8904 B( 26-C , 43-H ) :   0.9810
B( 27-C , 29-C ) :   1.3713 B( 27-C , 45-H ) :   0.9784 B( 28-C , 29-C ) :   1.3714
B( 28-C , 44-H ) :   0.9783 B( 29-C , 46-H ) :   0.9870 B( 30-C , 32-H ) :   0.9843
B( 30-C , 53-C ) :   1.3477 B( 33-N , 49-H ) :   0.9509 B( 33-N , 50-H ) :   0.9509
B( 34-N , 47-H ) :   0.9460 B( 34-N , 48-H ) :   0.9460 B( 35-N , 36-O ) :   1.5314
B( 35-N , 37-O ) :   1.5315 B( 36-O , 37-O ) :   0.2645 B( 51-C , 55-N ) :   1.2779
B( 51-C , 57-C ) :   1.2875 B( 52-H , 55-N ) :   0.9473 B( 53-C , 54-C ) :   1.0831
B( 53-C , 58-C ) :   1.3476 B( 54-C , 56-N ) :   3.0011 B( 55-N , 59-H ) :   0.9473
B( 57-C , 58-C ) :   1.4153 B( 57-C , 60-H ) :   0.9854 B( 58-C , 61-H ) :   0.9842

FINAL SINGLE POINT ENERGY     -1484.529508026854

DIPOLE MOMENT
-------------

Method             : SCF
Type of density    : Electron Density
Multiplicity       :   1
Irrep              :   0
Energy             : -1484.5295080268538186 Eh
Relativity type    :
Basis              : AO
                                X                 Y                 Z
Electronic contribution:     65.539078317     -12.284044639      -1.032529830
Nuclear contribution   :    -67.222715172      12.277669142       1.028122480
                        -----------------------------------------
Total Dipole Moment    :     -1.683636855      -0.006375497      -0.004407349
                        -----------------------------------------
Magnitude (a.u.)       :      1.683654695
Magnitude (Debye)      :      4.279510136

Rotational constants in cm-1:             0.000397             0.000262             0.000249
Rotational constants in MHz :            11.894438             7.867198             7.454734

                             ****ORCA TERMINATED NORMALLY****
TOTAL RUN TIME: 0 days 0 hours 1 minutes 11 seconds 926 msec
