                         Program Version 6.0.1  -  RELEASE   -
|  1> ! B3LYP def2-SVP SP TightSCF ALLPOP KEEPDENS
|  2>
|  3> %maxcore 5000
|  4>
|  5> %pal
|  6> nprocs 20
|  7> end
|  8>
|  9> * xyz 0 1
| 10>   O           2.64276363203394     -0.36922886813941      1.36897212589755
| 11>   O           2.71556354576100     -0.26564936271740     -0.79361452746234
| 12>   N           2.14023461264676     -0.14025155988384      0.27805691078743
| 13>   N          -3.20696122458547      1.65604073672937      0.18449779788922
| 14>   C           0.74804487449118      0.31645601812729      0.25295466021850
| 15>   C          -1.90582775047450      1.18030004721936      0.20518053929643
| 16>   C           0.05444704690148      0.46944984763939      1.45572280954139
| 17>   C           0.13696174146160      0.58825649988408     -0.97347227918619
| 18>   C          -1.26545771510373      0.89911930409019      1.43037845046782
| 19>   C          -1.18298993656182      1.01819298334316     -0.99537127884757
| 20>   H           0.56323373134737      0.24577329987281      2.39282270375262
| 21>   H           0.70888279604556      0.45525942531379     -1.89122266226497
| 22>   H          -1.81533860404831      1.02315117785936      2.36666997696382
| 23>   H          -1.66732008775231      1.23694405067902     -1.95033667535675
| 24>   H          -3.77666105079663      1.47793567837986      1.00576210993153
| 25>   H          -3.72193946782008      1.55608456393310     -0.68450536760096
| 26>   O          -4.25764196823015      4.40021123706916      0.47828364099294
| 27>   H          -3.66213047575637      3.64128597630219      0.35535325728113
| 28>   H          -3.66035667415949      5.15920666159849      0.50727112439841
| 29> *
| 30>
| 31>                          ****END OF INPUT****

CARTESIAN COORDINATES (ANGSTROEM)
---------------------------------
  O      2.642764   -0.369229    1.368972
  O      2.715564   -0.265649   -0.793615
  N      2.140235   -0.140252    0.278057
  N     -3.206961    1.656041    0.184498
  C      0.748045    0.316456    0.252955
  C     -1.905828    1.180300    0.205181
  C      0.054447    0.469450    1.455723
  C      0.136962    0.588256   -0.973472
  C     -1.265458    0.899119    1.430378
  C     -1.182990    1.018193   -0.995371
  H      0.563234    0.245773    2.392823
  H      0.708883    0.455259   -1.891223
  H     -1.815339    1.023151    2.366670
  H     -1.667320    1.236944   -1.950337
  H     -3.776661    1.477936    1.005762
  H     -3.721939    1.556085   -0.684505
  O     -4.257642    4.400211    0.478284
  H     -3.662130    3.641286    0.355353
  H     -3.660357    5.159207    0.507271

 Total Charge           Charge          ....    0
 Multiplicity           Mult            ....    1
 Number of Electrons    NEL             ....   82
 Basis Dimension        Dim             ....  194

ORBITAL ENERGIES
----------------

  NO   OCC          E(Eh)            E(eV)
   0   2.0000     -19.152477      -521.1654
   1   2.0000     -19.152407      -521.1635
   2   2.0000     -19.104074      -519.8483
   3   2.0000     -14.550841      -395.9485
   4   2.0000     -14.376327      -391.1997
   5   2.0000     -10.265615      -279.3416
   6   2.0000     -10.240402      -278.6555
   7   2.0000     -10.220974      -278.1269
   8   2.0000     -10.220871      -278.1240
   9   2.0000     -10.215160      -277.9686
  10   2.0000     -10.215010      -277.9645
  11   2.0000      -1.212921       -33.0052
  12   2.0000      -1.038551       -28.2604
  13   2.0000      -0.965790       -26.2805
  14   2.0000      -0.948751       -25.8168
  15   2.0000      -0.874870       -23.8064
  16   2.0000      -0.788759       -21.4632
  17   2.0000      -0.770534       -20.9673
  18   2.0000      -0.688650       -18.7391
  19   2.0000      -0.643599       -17.5132
  20   2.0000      -0.596935       -16.2434
  21   2.0000      -0.560416       -15.2497
  22   2.0000      -0.548978       -14.9385
  23   2.0000      -0.535038       -14.5591
  24   2.0000      -0.532809       -14.4985
  25   2.0000      -0.501551       -13.6479
  26   2.0000      -0.499063       -13.5802
  27   2.0000      -0.467643       -12.7252
  28   2.0000      -0.462657       -12.5895
  29   2.0000      -0.451003       -12.2724
  30   2.0000      -0.431049       -11.7294
  31   2.0000      -0.416688       -11.3387
  32   2.0000      -0.374982       -10.2038
  33   2.0000      -0.361401        -9.8342
  34   2.0000      -0.343912        -9.3583
  35   2.0000      -0.305058        -8.3010
  36   2.0000      -0.303116        -8.2482
  37   2.0000      -0.285886        -7.7794
  38   2.0000      -0.285048        -7.7565
  39   2.0000      -0.280209        -7.6249
  40   2.0000      -0.246127        -6.6975
  41   0.0000      -0.081195        -2.2094
  42   0.0000      -0.035726        -0.9721
  43   0.0000       0.004332         0.1179
  44   0.0000       0.027971         0.7611
  45   0.0000       0.059669         1.6237

MULLIKEN ATOMIC CHARGES
-----------------------
   0 O :   -0.250130
   1 O :   -0.250302
   2 N :    0.235162
   3 N :   -0.089788
   4 C :    0.168609
   5 C :    0.092597
   6 C :   -0.018173
   7 C :   -0.017923
   8 C :   -0.022589
   9 C :   -0.023749
  10 H :    0.008258
  11 H :    0.008031
  12 H :   -0.022901
  13 H :   -0.024034
  14 H :    0.133680
  15 H :    0.132103
  16 O :   -0.322068
  17 H :    0.115862
  18 H :    0.147357
Sum of atomic charges:    0.0000000

LOEWDIN ATOMIC CHARGES
----------------------
   0 O :   -0.215171
   1 O :   -0.215380
   2 N :    0.276642
   3 N :    0.004397
   4 C :   -0.051339
   5 C :    0.037683
   6 C :    0.010847
   7 C :    0.010757
   8 C :   -0.054016
   9 C :   -0.054544
  10 H :    0.042692
  11 H :    0.042607
  12 H :    0.030421
  13 H :    0.029923
  14 H :    0.083492
  15 H :    0.082821
  16 O :   -0.171370
  17 H :    0.037146
  18 H :    0.072392

  Mayer bond orders larger than 0.100000
B(  0-O ,  1-O ) :   0.2713 B(  0-O ,  2-N ) :   1.5386 B(  1-O ,  2-N ) :   1.5385
B(  2-N ,  4-C ) :   0.8778 B(  3-N ,  5-C ) :   1.2009 B(  3-N , 14-H ) :   0.9388
B(  3-N , 15-H ) :   0.9409 B(  3-N , 17-H ) :   0.1058 B(  4-C ,  6-C ) :   1.3551
B(  4-C ,  7-C ) :   1.3556 B(  5-C ,  8-C ) :   1.3049 B(  5-C ,  9-C ) :   1.3045
B(  6-C ,  8-C ) :   1.3779 B(  6-C , 10-H ) :   0.9813 B(  7-C ,  9-C ) :   1.3781
B(  7-C , 11-H ) :   0.9812 B(  8-C , 12-H ) :   0.9882 B(  9-C , 13-H ) :   0.9882
B( 16-O , 17-H ) :   0.9689 B( 16-O , 18-H ) :   1.0047

FINAL SINGLE POINT ENERGY      -567.815619102517

DIPOLE MOMENT
-------------

Method             : SCF
Type of density    : Electron Density
Multiplicity       :   1
Irrep              :   0
Energy             :  -567.8156191025165072 Eh
Relativity type    :
Basis              : AO
                                X                 Y                 Z
Electronic contribution:     11.658531315      -6.451208560      -0.094181580
Nuclear contribution   :    -13.280070489       6.676795481      -0.042531360
                        -----------------------------------------
Total Dipole Moment    :     -1.621539175       0.225586921      -0.136712940
                        -----------------------------------------
Magnitude (a.u.)       :      1.642853975
Magnitude (Debye)      :      4.175802947

Rotational constants in cm-1:             0.093852             0.014540             0.013615
Rotational constants in MHz :          2813.612303           435.896466           408.169691

                             ****ORCA TERMINATED NORMALLY****
TOTAL RUN TIME: 0 days 0 hours 0 minutes 9 seconds 228 msec
