                         Program Version 6.0.1  -  RELEASE   -
|  1> ! B3LYP def2-SVP SP TightSCF ALLPOP KEEPDENS
|  2>
|  3> %maxcore 5000
|  4>
|  5> %pal
|  6> nprocs 20
|  7> end
|  8>
|  9> * xyz 0 1
| 10>   N           3.06398927702708      0.04256355513999     -0.35709721907005
| 11>   N          -3.68921719526027     -0.02608869472415      0.48451611226343
| 12>   C           1.69101124227729      0.02741534541043     -0.14360932753297
| 13>   C           0.98555345412216     -1.19096618002689     -0.09686572948599
| 14>   C           0.97007091631733      1.23162434107207     -0.02423822596621
| 15>   C          -1.11281018132097     -0.00010874706815      0.18276227475712
| 16>   C          -0.39359204449042     -1.20469046515569      0.06380339956202
| 17>   C          -0.40924720178180      1.21839987975593      0.13635768747600
| 18>   C          -2.53512320512434     -0.01428096618063      0.35058602275672
| 19>   H           1.53141704324854     -2.13319769293558     -0.19123288660407
| 20>   H           1.50377114301103      2.18482765039615     -0.06077570481914
| 21>   H          -0.92836052339480     -2.15558569759274      0.10075588784776
| 22>   H          -0.95604836017418      2.15848138092966      0.23012708086801
| 23>   H           3.55871949379651      0.88027457649267     -0.06667949108103
| 24>   H           3.56808110246634     -0.80410206578645     -0.11096276538504
| 25>   O           4.73805546192393     -0.09014702774849     -2.76272504942862
| 26>   H           3.96012009251785     -0.02994957711648     -2.18131327826182
| 27>   H           4.38798691923870      0.11720929933836     -3.63892555239611
| 28> *
| 29>
| 30>
| 31>                          ****END OF INPUT****

CARTESIAN COORDINATES (ANGSTROEM)
---------------------------------
  N      3.063989    0.042564   -0.357097
  N     -3.689217   -0.026089    0.484516
  C      1.691011    0.027415   -0.143609
  C      0.985553   -1.190966   -0.096866
  C      0.970071    1.231624   -0.024238
  C     -1.112810   -0.000109    0.182762
  C     -0.393592   -1.204690    0.063803
  C     -0.409247    1.218400    0.136358
  C     -2.535123   -0.014281    0.350586
  H      1.531417   -2.133198   -0.191233
  H      1.503771    2.184828   -0.060776
  H     -0.928361   -2.155586    0.100756
  H     -0.956048    2.158481    0.230127
  H      3.558719    0.880275   -0.066679
  H      3.568081   -0.804102   -0.110963
  O      4.738055   -0.090147   -2.762725
  H      3.960120   -0.029950   -2.181313
  H      4.387987    0.117209   -3.638926

 Total Charge           Charge          ....    0
 Multiplicity           Mult            ....    1
 Number of Electrons    NEL             ....   72
 Basis Dimension        Dim             ....  180

ORBITAL ENERGIES
----------------

  NO   OCC          E(Eh)            E(eV)
   0   2.0000     -19.101641      -519.7821
   1   2.0000     -14.371582      -391.0706
   2   2.0000     -14.318391      -389.6232
   3   2.0000     -10.260100      -279.1915
   4   2.0000     -10.229770      -278.3662
   5   2.0000     -10.220589      -278.1164
   6   2.0000     -10.220471      -278.1132
   7   2.0000     -10.219573      -278.0887
   8   2.0000     -10.211567      -277.8709
   9   2.0000     -10.211332      -277.8645
  10   2.0000      -0.963280       -26.2122
  11   2.0000      -0.943928       -25.6856
  12   2.0000      -0.891646       -24.2629
  13   2.0000      -0.859898       -23.3990
  14   2.0000      -0.766779       -20.8651
  15   2.0000      -0.763426       -20.7739
  16   2.0000      -0.647303       -17.6140
  17   2.0000      -0.639728       -17.4079
  18   2.0000      -0.565176       -15.3792
  19   2.0000      -0.543213       -14.7816
  20   2.0000      -0.539751       -14.6874
  21   2.0000      -0.498964       -13.5775
  22   2.0000      -0.466934       -12.7059
  23   2.0000      -0.462330       -12.5806
  24   2.0000      -0.447147       -12.1675
  25   2.0000      -0.423905       -11.5350
  26   2.0000      -0.413032       -11.2392
  27   2.0000      -0.377457       -10.2711
  28   2.0000      -0.375878       -10.2281
  29   2.0000      -0.352706        -9.5976
  30   2.0000      -0.351137        -9.5549
  31   2.0000      -0.328806        -8.9473
  32   2.0000      -0.319572        -8.6960
  33   2.0000      -0.282885        -7.6977
  34   2.0000      -0.277999        -7.5647
  35   2.0000      -0.237292        -6.4571
  36   0.0000      -0.045576        -1.2402
  37   0.0000      -0.033232        -0.9043
  38   0.0000       0.030181         0.8213
  39   0.0000       0.039543         1.0760
  40   0.0000       0.054902         1.4940

MULLIKEN ATOMIC CHARGES
-----------------------
   0 N :   -0.094016
   1 N :    0.049494
   2 C :    0.079246
   3 C :   -0.019796
   4 C :   -0.020991
   5 C :   -0.094323
   6 C :    0.041292
   7 C :    0.041200
   8 C :   -0.121103
   9 H :   -0.025297
  10 H :   -0.027216
  11 H :   -0.004898
  12 H :   -0.005256
  13 H :    0.129213
  14 H :    0.132987
  15 O :   -0.323808
  16 H :    0.116778
  17 H :    0.146492
Sum of atomic charges:   -0.0000000

LOEWDIN ATOMIC CHARGES
----------------------
   0 N :   -0.001071
   1 N :   -0.076749
   2 C :    0.032592
   3 C :   -0.054724
   4 C :   -0.055765
   5 C :   -0.092115
   6 C :    0.019874
   7 C :    0.019568
   8 C :   -0.030016
   9 H :    0.030051
  10 H :    0.029208
  11 H :    0.039829
  12 H :    0.039671
  13 H :    0.081082
  14 H :    0.082656
  15 O :   -0.172740
  16 H :    0.036974
  17 H :    0.071674

  Mayer bond orders larger than 0.100000
B(  0-N ,  2-C ) :   1.1858 B(  0-N , 13-H ) :   0.9420 B(  0-N , 14-H ) :   0.9395
B(  0-N , 16-H ) :   0.1089 B(  1-N ,  8-C ) :   3.0052 B(  2-C ,  3-C ) :   1.3178
B(  2-C ,  4-C ) :   1.3181 B(  3-C ,  6-C ) :   1.4002 B(  3-C ,  9-H ) :   0.9869
B(  4-C ,  7-C ) :   1.3996 B(  4-C , 10-H ) :   0.9867 B(  5-C ,  6-C ) :   1.3552
B(  5-C ,  7-C ) :   1.3559 B(  5-C ,  8-C ) :   1.0790 B(  6-C , 11-H ) :   0.9854
B(  7-C , 12-H ) :   0.9853 B( 15-O , 16-H ) :   0.9661 B( 15-O , 17-H ) :   1.0049

FINAL SINGLE POINT ENERGY      -455.677852834955

DIPOLE MOMENT
-------------

Method             : SCF
Type of density    : Electron Density
Multiplicity       :   1
Irrep              :   0
Energy             :  -455.6778528349548765 Eh
Relativity type    :
Basis              : AO
                                X                 Y                 Z
Electronic contribution:    -10.008865459      -0.025254618       3.330408406
Nuclear contribution   :     11.563106310       0.213326256      -3.228463043
                        -----------------------------------------
Total Dipole Moment    :      1.554240851       0.188071638       0.101945363
                        -----------------------------------------
Magnitude (a.u.)       :      1.568894012
Magnitude (Debye)      :      3.987811662

Rotational constants in cm-1:             0.124424             0.016934             0.016166
Rotational constants in MHz :          3730.140358           507.669066           484.631672

                             ****ORCA TERMINATED NORMALLY****
TOTAL RUN TIME: 0 days 0 hours 0 minutes 8 seconds 993 msec
