                         Program Version 6.0.1  -  RELEASE   -
|  1> ! B3LYP def2-SVP SP TightSCF ALLPOP KEEPDENS
|  2>
|  3> %maxcore 4000
|  4>
|  5> %pal
|  6> nprocs 28
|  7> end
|  8>
|  9> * xyz 0 1
| 10>   N          -2.43448121703009      0.36741909262932      0.18147699052412
| 11>   C          -1.03503828260197      0.26528824755481      0.09117257825581
| 12>   C          -0.25131394768408      1.36706356498337     -0.28698435393081
| 13>   C          -0.39508418360517     -0.93540088926926      0.45035341829320
| 14>   C           1.14133215301191      1.26770605201573     -0.31236981082119
| 15>   C           0.99577466928623     -1.02558379053463      0.41426859727434
| 16>   C           1.77548224569855      0.07185521874630      0.03316518508271
| 17>   H          -0.73879224595821      2.30622015555282     -0.56492442869101
| 18>   H          -1.00293284268754     -1.77645415963349      0.79013040178293
| 19>   H           1.73416941190368      2.13598761060392     -0.61177659397178
| 20>   H           1.47672910983906     -1.96684898813745      0.69353768127783
| 21>   H           2.86469209650143     -0.00448391242286      0.00800482764853
| 22>   H          -2.92869388080783     -0.48058696747235     -0.08570326344044
| 23>   H          -2.82565691636669      1.17624870728722     -0.29281707890022
| 24>   O          -2.74456746251013     -1.14939486778922      2.62545895812616
| 25>   H          -1.89330254651412     -1.04948410740446      3.07222001838264
| 26>   H          -2.76730583577498     -0.37735412480977      2.03082780330714
| 27> *
| 28>
| 29>
| 30>                          ****END OF INPUT****

CARTESIAN COORDINATES (ANGSTROEM)
---------------------------------
  N     -2.434481    0.367419    0.181477
  C     -1.035038    0.265288    0.091173
  C     -0.251314    1.367064   -0.286984
  C     -0.395084   -0.935401    0.450353
  C      1.141332    1.267706   -0.312370
  C      0.995775   -1.025584    0.414269
  C      1.775482    0.071855    0.033165
  H     -0.738792    2.306220   -0.564924
  H     -1.002933   -1.776454    0.790130
  H      1.734169    2.135988   -0.611777
  H      1.476729   -1.966849    0.693538
  H      2.864692   -0.004484    0.008005
  H     -2.928694   -0.480587   -0.085703
  H     -2.825657    1.176249   -0.292817
  O     -2.744567   -1.149395    2.625459
  H     -1.893303   -1.049484    3.072220
  H     -2.767306   -0.377354    2.030828

 Total Charge           Charge          ....    0
 Multiplicity           Mult            ....    1
 Number of Electrons    NEL             ....   60
 Basis Dimension        Dim             ....  157

ORBITAL ENERGIES
----------------

  NO   OCC          E(Eh)            E(eV)
   0   2.0000     -19.098435      -519.6948
   1   2.0000     -14.346097      -390.3772
   2   2.0000     -10.229055      -278.3467
   3   2.0000     -10.189583      -277.2726
   4   2.0000     -10.188536      -277.2442
   5   2.0000     -10.186627      -277.1922
   6   2.0000     -10.182030      -277.0671
   7   2.0000     -10.180784      -277.0332
   8   2.0000      -0.958207       -26.0742
   9   2.0000      -0.916381       -24.9360
  10   2.0000      -0.830354       -22.5951
  11   2.0000      -0.736604       -20.0440
  12   2.0000      -0.719540       -19.5797
  13   2.0000      -0.608724       -16.5642
  14   2.0000      -0.594424       -16.1751
  15   2.0000      -0.525235       -14.2924
  16   2.0000      -0.515404       -14.0249
  17   2.0000      -0.487243       -13.2585
  18   2.0000      -0.475913       -12.9502
  19   2.0000      -0.434974       -11.8362
  20   2.0000      -0.430955       -11.7269
  21   2.0000      -0.418888       -11.3985
  22   2.0000      -0.389852       -10.6084
  23   2.0000      -0.360295        -9.8041
  24   2.0000      -0.350363        -9.5339
  25   2.0000      -0.344067        -9.3625
  26   2.0000      -0.315776        -8.5927
  27   2.0000      -0.273935        -7.4541
  28   2.0000      -0.253918        -6.9095
  29   2.0000      -0.218175        -5.9368
  30   0.0000      -0.008595        -0.2339
  31   0.0000       0.004109         0.1118
  32   0.0000       0.049538         1.3480
  33   0.0000       0.068589         1.8664
  34   0.0000       0.081391         2.2148

MULLIKEN ATOMIC CHARGES
-----------------------
   0 N :   -0.112138
   1 C :    0.044061
   2 C :   -0.015661
   3 C :   -0.044625
   4 C :    0.013388
   5 C :    0.014097
   6 C :    0.019480
   7 H :   -0.043734
   8 H :   -0.034198
   9 H :   -0.018427
  10 H :   -0.016746
  11 H :   -0.022097
  12 H :    0.130828
  13 H :    0.106761
  14 O :   -0.307703
  15 H :    0.150381
  16 H :    0.136332
Sum of atomic charges:    0.0000000

LOEWDIN ATOMIC CHARGES
----------------------
   0 N :   -0.029919
   1 C :    0.013208
   2 C :   -0.064035
   3 C :   -0.063978
   4 C :   -0.016648
   5 C :   -0.016707
   6 C :   -0.051606
   7 H :    0.020970
   8 H :    0.020645
   9 H :    0.026961
  10 H :    0.027391
  11 H :    0.024569
  12 H :    0.078028
  13 H :    0.071249
  14 O :   -0.155302
  15 H :    0.071422
  16 H :    0.043753

  Mayer bond orders larger than 0.100000
B(  0-N ,  1-C ) :   1.1339 B(  0-N , 12-H ) :   0.9424 B(  0-N , 13-H ) :   0.9488
B(  0-N , 16-H ) :   0.1076 B(  1-C ,  2-C ) :   1.3605 B(  1-C ,  3-C ) :   1.3578
B(  2-C ,  4-C ) :   1.3868 B(  2-C ,  7-H ) :   0.9834 B(  3-C ,  5-C ) :   1.3871
B(  3-C ,  8-H ) :   0.9791 B(  4-C ,  6-C ) :   1.3846 B(  4-C ,  9-H ) :   0.9793
B(  5-C ,  6-C ) :   1.3707 B(  5-C , 10-H ) :   0.9815 B(  6-C , 11-H ) :   0.9878
B( 14-O , 15-H ) :   1.0018 B( 14-O , 16-H ) :   0.9646

FINAL SINGLE POINT ENERGY      -363.551254233734

DIPOLE MOMENT
-------------

Method             : SCF
Type of density    : Electron Density
Multiplicity       :   1
Irrep              :   0
Energy             :  -363.5512542337338573 Eh
Relativity type    :
Basis              : AO
                                X                 Y                 Z
Electronic contribution:      1.518951601       0.547473997      -1.295786073
Nuclear contribution   :     -1.392442614       0.037165837       0.632231962
                        -----------------------------------------
Total Dipole Moment    :      0.126508988       0.584639834      -0.663554112
                        -----------------------------------------
Magnitude (a.u.)       :      0.893371322
Magnitude (Debye)      :      2.270769439

Rotational constants in cm-1:             0.113268             0.043609             0.034325
Rotational constants in MHz :          3395.690437          1307.364258          1029.046913

                             ****ORCA TERMINATED NORMALLY****
TOTAL RUN TIME: 0 days 0 hours 0 minutes 9 seconds 230 msec
