                         Program Version 6.0.1  -  RELEASE   -
|  1> ! B3LYP def2-SVP SP TightSCF ALLPOP KEEPDENS
|  2>
|  3> %maxcore 5000
|  4>
|  5> %pal
|  6> nprocs 20
|  7> end
|  8>
|  9> * xyz 0 1
| 10>   N          -2.86669329290360      0.38632637745803      0.19631242133056
| 11>   C           1.37190485288967      0.11990268085233      0.04785424719720
| 12>   C          -1.46346266771294      0.29861817110522      0.10546961594624
| 13>   C           0.57617891223437     -0.98538810846856      0.39384040104482
| 14>   C           0.71231217054191      1.31610344967012     -0.25889678061201
| 15>   C          -0.81314586807051     -0.90603320666791      0.43043532870321
| 16>   C          -0.68162567581616      1.41002922423720     -0.23550761877296
| 17>   C           2.87554438166575      0.00906684560623      0.00442670245016
| 18>   H           1.05874130381496     -1.93382178331140      0.64894247811750
| 19>   H           1.29874497337856      2.19890976069846     -0.52940181997790
| 20>   H          -1.41338585895038     -1.76108513964392      0.74816017178316
| 21>   H          -1.16717601091166      2.35784902783606     -0.48636342970619
| 22>   H           3.34665255985829      0.98803588190303     -0.17014906635214
| 23>   H           3.27827312581164     -0.39515488651588      0.94815758804884
| 24>   H           3.20663085052291     -0.66827320642310     -0.80178800890871
| 25>   H          -3.25642825987599      1.21722913802075     -0.24009749200443
| 26>   H          -3.34967796179111     -0.44578871169700     -0.13514186229503
| 27>   O          -3.17489753620415     -1.22693242248543      2.57487389979804
| 28>   H          -2.33071421970817     -1.11642583331983      3.03239133314838
| 29>   H          -3.20733853797336     -0.44441319885439      1.99354103606123
| 30> *
| 31>
| 32>                          ****END OF INPUT****

CARTESIAN COORDINATES (ANGSTROEM)
---------------------------------
  N     -2.866693    0.386326    0.196312
  C      1.371905    0.119903    0.047854
  C     -1.463463    0.298618    0.105470
  C      0.576179   -0.985388    0.393840
  C      0.712312    1.316103   -0.258897
  C     -0.813146   -0.906033    0.430435
  C     -0.681626    1.410029   -0.235508
  C      2.875544    0.009067    0.004427
  H      1.058741   -1.933822    0.648942
  H      1.298745    2.198910   -0.529402
  H     -1.413386   -1.761085    0.748160
  H     -1.167176    2.357849   -0.486363
  H      3.346653    0.988036   -0.170149
  H      3.278273   -0.395155    0.948158
  H      3.206631   -0.668273   -0.801788
  H     -3.256428    1.217229   -0.240097
  H     -3.349678   -0.445789   -0.135142
  O     -3.174898   -1.226932    2.574874
  H     -2.330714   -1.116426    3.032391
  H     -3.207339   -0.444413    1.993541

 Total Charge           Charge          ....    0
 Multiplicity           Mult            ....    1
 Number of Electrons    NEL             ....   68
 Basis Dimension        Dim             ....  181

ORBITAL ENERGIES
----------------

  NO   OCC          E(Eh)            E(eV)
   0   2.0000     -19.095995      -519.6284
   1   2.0000     -14.343602      -390.3093
   2   2.0000     -10.224591      -278.2253
   3   2.0000     -10.185075      -277.1500
   4   2.0000     -10.184683      -277.1393
   5   2.0000     -10.184100      -277.1234
   6   2.0000     -10.183732      -277.1134
   7   2.0000     -10.182702      -277.0854
   8   2.0000     -10.180165      -277.0164
   9   2.0000      -0.955740       -26.0070
  10   2.0000      -0.913300       -24.8521
  11   2.0000      -0.833418       -22.6785
  12   2.0000      -0.747994       -20.3540
  13   2.0000      -0.733987       -19.9728
  14   2.0000      -0.666278       -18.1303
  15   2.0000      -0.608635       -16.5618
  16   2.0000      -0.576903       -15.6983
  17   2.0000      -0.518479       -14.1085
  18   2.0000      -0.515704       -14.0330
  19   2.0000      -0.485326       -13.2064
  20   2.0000      -0.458008       -12.4630
  21   2.0000      -0.443583       -12.0705
  22   2.0000      -0.425066       -11.5666
  23   2.0000      -0.416161       -11.3243
  24   2.0000      -0.414405       -11.2765
  25   2.0000      -0.383719       -10.4415
  26   2.0000      -0.376843       -10.2544
  27   2.0000      -0.354754        -9.6534
  28   2.0000      -0.346118        -9.4183
  29   2.0000      -0.337300        -9.1784
  30   2.0000      -0.305685        -8.3181
  31   2.0000      -0.271562        -7.3896
  32   2.0000      -0.251569        -6.8455
  33   2.0000      -0.211350        -5.7511
  34   0.0000      -0.007190        -0.1956
  35   0.0000       0.006170         0.1679
  36   0.0000       0.051304         1.3961
  37   0.0000       0.068558         1.8656
  38   0.0000       0.081033         2.2050

MULLIKEN ATOMIC CHARGES
-----------------------
   0 N :   -0.112212
   1 C :   -0.030520
   2 C :    0.048447
   3 C :   -0.019675
   4 C :   -0.020625
   5 C :   -0.042162
   6 C :   -0.011880
   7 C :    0.082418
   8 H :   -0.033125
   9 H :   -0.034272
  10 H :   -0.036453
  11 H :   -0.047235
  12 H :    0.002369
  13 H :    0.019063
  14 H :    0.023498
  15 H :    0.104845
  16 H :    0.130219
  17 O :   -0.308156
  18 H :    0.149524
  19 H :    0.135933
Sum of atomic charges:    0.0000000

LOEWDIN ATOMIC CHARGES
----------------------
   0 N :   -0.032136
   1 C :   -0.047382
   2 C :    0.006794
   3 C :   -0.019707
   4 C :   -0.023071
   5 C :   -0.059422
   6 C :   -0.062368
   7 C :   -0.045941
   8 H :    0.024213
   9 H :    0.023420
  10 H :    0.020506
  11 H :    0.020682
  12 H :    0.025986
  13 H :    0.030961
  14 H :    0.032438
  15 H :    0.070460
  16 H :    0.077517
  17 O :   -0.156318
  18 H :    0.070750
  19 H :    0.042617

  Mayer bond orders larger than 0.100000
B(  0-N ,  2-C ) :   1.1260 B(  0-N , 15-H ) :   0.9491 B(  0-N , 16-H ) :   0.9429
B(  0-N , 19-H ) :   0.1116 B(  1-C ,  3-C ) :   1.3653 B(  1-C ,  4-C ) :   1.3991
B(  1-C ,  7-C ) :   1.0650 B(  2-C ,  5-C ) :   1.3479 B(  2-C ,  6-C ) :   1.3646
B(  3-C ,  5-C ) :   1.3843 B(  3-C ,  8-H ) :   0.9861 B(  4-C ,  6-C ) :   1.3639
B(  4-C ,  9-H ) :   0.9789 B(  5-C , 10-H ) :   0.9792 B(  6-C , 11-H ) :   0.9832
B(  7-C , 12-H ) :   0.9588 B(  7-C , 13-H ) :   0.9558 B(  7-C , 14-H ) :   0.9543
B( 17-O , 18-H ) :   1.0023 B( 17-O , 19-H ) :   0.9627

FINAL SINGLE POINT ENERGY      -402.810224035993

DIPOLE MOMENT
-------------

Method             : SCF
Type of density    : Electron Density
Multiplicity       :   1
Irrep              :   0
Energy             :  -402.8102240359933148 Eh
Relativity type    :
Basis              : AO
                                X                 Y                 Z
Electronic contribution:     -2.444067152       0.692159559      -0.878062091
Nuclear contribution   :      2.725044042      -0.096435411       0.206662549
                        -----------------------------------------
Total Dipole Moment    :      0.280976890       0.595724147      -0.671399541
                        -----------------------------------------
Magnitude (a.u.)       :      0.940538472
Magnitude (Debye)      :      2.390658807

Rotational constants in cm-1:             0.098161             0.029794             0.024458
Rotational constants in MHz :          2942.797819           893.189633           733.224414

                             ****ORCA TERMINATED NORMALLY****
TOTAL RUN TIME: 0 days 0 hours 0 minutes 8 seconds 507 msec
