                         Program Version 6.0.1  -  RELEASE   -
|  1> ! B3LYP def2-SVP OPT TightSCF ALLPOP KEEPDENS D3BJ
|  2>
|  3> %pal
|  4> nprocs 4
|  5> end
|  6>
|  7> * xyz 0 1
|  8> O          2.73740        1.09760       -0.00070
|  9> O          2.73730       -1.09760        0.00030
| 10> N          2.12920        0.00000       -0.00010
| 11> N         -3.49080       -0.00010        0.00010
| 12> C          0.70930        0.00000        0.00050
| 13> C         -2.08040        0.00000       -0.00050
| 14> C          0.01200        1.20800        0.00050
| 15> C          0.01190       -1.20800        0.00010
| 16> C         -1.38290        1.20800        0.00000
| 17> C         -1.38300       -1.20790       -0.00040
| 18> H          0.52190        2.16800        0.00080
| 19> H          0.52180       -2.16800        0.00000
| 20> H         -1.91540        2.15580        0.00030
| 21> H         -1.91540       -2.15570       -0.00060
| 22> H         -3.99700        0.87550       -0.00160
| 23> H         -3.99700       -0.87560       -0.00190
| 24> *
| 25>
| 26>                          ****END OF INPUT****
 Total Charge           Charge          ....    0
 Multiplicity           Mult            ....    1
 Number of Electrons    NEL             ....   72
Dispersion correction           -0.028742453
FINAL SINGLE POINT ENERGY      -491.509837869645
Dispersion correction             ... done (  0.0 sec)
Dispersion correction           -0.028767762
FINAL SINGLE POINT ENERGY      -491.514874875519
Dispersion correction             ... done (  0.0 sec)
Dispersion correction           -0.028760010
FINAL SINGLE POINT ENERGY      -491.515914876808
Dispersion correction             ... done (  0.0 sec)
FINAL SINGLE POINT ENERGY      -491.515971903912
FINAL SINGLE POINT ENERGY      -491.515907224789
FINAL SINGLE POINT ENERGY      -491.516067465063
Dispersion correction             ... done (  0.0 sec)
Dispersion correction           -0.028749295
FINAL SINGLE POINT ENERGY      -491.516070442054
Dispersion correction             ... done (  0.0 sec)
Dispersion correction           -0.028752374
FINAL SINGLE POINT ENERGY      -491.516071770460
Dispersion correction             ... done (  0.0 sec)
                    ***********************HURRAY********************

CARTESIAN COORDINATES (ANGSTROEM)
---------------------------------
  O      2.721060    1.083238   -0.000151
  O      2.721079   -1.083242   -0.000412
  N      2.150373   -0.000022   -0.000159
  N     -3.474538    0.000006    0.001285
  C      0.690529   -0.000002    0.000089
  C     -2.110381   -0.000000    0.000440
  C      0.000335    1.216200    0.000338
  C      0.000336   -1.216203    0.000006
  C     -1.385846    1.216361    0.000505
  C     -1.385847   -1.216360    0.000173
  H      0.569114    2.145581    0.000355
  H      0.569122   -2.145581   -0.000227
  H     -1.929079    2.164818    0.000732
  H     -1.929086   -2.164814    0.000137
  H     -3.994130    0.865465   -0.003040
  H     -3.994143   -0.865445   -0.003270

 Multiplicity           Mult            ....    1
 Number of Electrons    NEL             ....   72
 Basis Dimension        Dim             ....  170

ORBITAL ENERGIES
----------------

  NO   OCC          E(Eh)            E(eV)
   0   2.0000     -19.140286      -520.8336
   1   2.0000     -19.140186      -520.8309
   2   2.0000     -14.539240      -395.6328
   3   2.0000     -14.364454      -390.8767
   4   2.0000     -10.257649      -279.1248
   5   2.0000     -10.226649      -278.2813
   6   2.0000     -10.209737      -277.8211
   7   2.0000     -10.209712      -277.8204
   8   2.0000     -10.202763      -277.6313
   9   2.0000     -10.202754      -277.6310
  10   2.0000      -1.200375       -32.6639
  11   2.0000      -1.025571       -27.9072
  12   2.0000      -0.939406       -25.5625
  13   2.0000      -0.862695       -23.4751
  14   2.0000      -0.777409       -21.1544
  15   2.0000      -0.759005       -20.6536
  16   2.0000      -0.678866       -18.4729
  17   2.0000      -0.633192       -17.2300
  18   2.0000      -0.587710       -15.9924
  19   2.0000      -0.551452       -15.0058
  20   2.0000      -0.545295       -14.8382
  21   2.0000      -0.525835       -14.3087
  22   2.0000      -0.521011       -14.1774
  23   2.0000      -0.488708       -13.2984
  24   2.0000      -0.456471       -12.4212
  25   2.0000      -0.452437       -12.3114
  26   2.0000      -0.440090       -11.9755
  27   2.0000      -0.418206       -11.3800
  28   2.0000      -0.409169       -11.1340
  29   2.0000      -0.363229        -9.8840
  30   2.0000      -0.337132        -9.1738
  31   2.0000      -0.293597        -7.9892
  32   2.0000      -0.292161        -7.9501
  33   2.0000      -0.274099        -7.4586
  34   2.0000      -0.273994        -7.4558
  35   2.0000      -0.226906        -6.1744
  36   0.0000      -0.068571        -1.8659
  37   0.0000      -0.023486        -0.6391
  38   0.0000       0.021612         0.5881
  39   0.0000       0.033340         0.9072
  40   0.0000       0.068660         1.8683

MULLIKEN ATOMIC CHARGES
-----------------------
   0 O :   -0.258878
   1 O :   -0.258800
   2 N :    0.235945
   3 N :   -0.054801
   4 C :    0.161722
   5 C :    0.105379
   6 C :   -0.018764
   7 C :   -0.018766
   8 C :   -0.033029
   9 C :   -0.033022
  10 H :    0.002936
  11 H :    0.002938
  12 H :   -0.032974
  13 H :   -0.032975
  14 H :    0.116545
  15 H :    0.116545
Sum of atomic charges:   -0.0000000

LOEWDIN ATOMIC CHARGES
----------------------
   0 O :   -0.223890
   1 O :   -0.223813
   2 N :    0.276892
   3 N :    0.003055
   4 C :   -0.062430
   5 C :    0.047762
   6 C :    0.009828
   7 C :    0.009830
   8 C :   -0.064217
   9 C :   -0.064214
  10 H :    0.040649
  11 H :    0.040649
  12 H :    0.026069
  13 H :    0.026069
  14 H :    0.078880
  15 H :    0.078880

  Mayer bond orders larger than 0.100000
B(  0-O ,  1-O ) :   0.2646 B(  0-O ,  2-N ) :   1.5315 B(  1-O ,  2-N ) :   1.5315
B(  2-N ,  4-C ) :   0.8903 B(  3-N ,  5-C ) :   1.2931 B(  3-N , 14-H ) :   0.9460
B(  3-N , 15-H ) :   0.9460 B(  4-C ,  6-C ) :   1.3431 B(  4-C ,  7-C ) :   1.3432
B(  5-C ,  8-C ) :   1.2735 B(  5-C ,  9-C ) :   1.2735 B(  6-C ,  8-C ) :   1.3952
B(  6-C , 10-H ) :   0.9809 B(  7-C ,  9-C ) :   1.3952 B(  7-C , 11-H ) :   0.9810
B(  8-C , 12-H ) :   0.9874 B(  9-C , 13-H ) :   0.9874

Dispersion correction           -0.028752225
FINAL SINGLE POINT ENERGY      -491.516071925061

DIPOLE MOMENT
-------------

Method             : SCF
Type of density    : Electron Density
Multiplicity       :   1
Irrep              :   0
Energy             :  -491.4873197004231429 Eh
Relativity type    :
Basis              : AO
                                X                 Y                 Z
Electronic contribution:      7.310756550      -0.000195259       0.001143075
Nuclear contribution   :    -10.276355408       0.000035220      -0.005809502
                        -----------------------------------------
Total Dipole Moment    :     -2.965598858      -0.000160039      -0.004666428
                        -----------------------------------------
Magnitude (a.u.)       :      2.965602534
Magnitude (Debye)      :      7.537962590

Rotational constants in cm-1:             0.130823             0.027363             0.022630
Rotational constants in MHz :          3921.967171           820.332888           678.430071

                             ****ORCA TERMINATED NORMALLY****
TOTAL RUN TIME: 0 days 0 hours 2 minutes 31 seconds 122 msec
