                         Program Version 6.0.1  -  RELEASE   -
|  1> ! wB97X-D3 def2-TZVPP TightSCF RIJCOSX SP
|  2>
|  3> %pal
|  4> nprocs 28
|  5> end
|  6>
|  7> %maxcore 3500
|  8>
|  9>
| 10> * xyz -1 2
| 11>   O           0.20400624386655      2.03105108728556     -1.84443974985470
| 12>   O          -4.04758657551042     -1.43950854058847      1.26009246980124
| 13>   C           1.04855990155750      0.44322208764627     -0.27110214581800
| 14>   C          -0.30468415097305     -0.00784078396742      0.12630408078104
| 15>   C          -2.59340278409941     -0.67690999832965     -0.43645711830103
| 16>   C          -1.34468472116018     -0.19765697561192     -0.80273855102143
| 17>   C           3.49671044639128      0.29458871155454      0.03249190593335
| 18>   C           2.18854260303632     -0.10612053307091      0.33086553631566
| 19>   C           1.27429860369609      1.45099095004663     -1.24079345428156
| 20>   C          -0.59240940276761     -0.32044267540922      1.46870712323583
| 21>   C          -2.88839442732721     -0.99479082631382      0.93251018550786
| 22>   C          -3.70811471551364     -0.85040131850740     -1.44271545409263
| 23>   C           4.67431803938824     -0.35464192435656      0.73451407791526
| 24>   C           3.67830703536069      1.28279898629413     -0.93116061527197
| 25>   C          -1.83067281745742     -0.79434521087881      1.86742509135083
| 26>   C           2.57061179367749      1.85170298202508     -1.56092476342021
| 27>   C          -4.62437221861474      0.34651312454640     -1.46421141161281
| 28>   C           4.73806041815310     -1.84188613355885      0.51969992619103
| 29>   C          -5.82728269936706      0.40083978710490     -0.89260278802764
| 30>   C           4.73158286717021     -2.76064524692506      1.48516838239108
| 31>   H          -1.16091771586860      0.02549929207013     -1.85800760764456
| 32>   H           2.03680183235597     -0.90742327250381      1.06035073319125
| 33>   H           0.17987899432886     -0.16464749859403      2.23073488275162
| 34>   H          -3.28137446799317     -1.00094089103469     -2.44963497126329
| 35>   H          -4.28913482759688     -1.74526069179231     -1.17233629019276
| 36>   H           5.60568438149748      0.10282549267772      0.35788569142916
| 37>   H           4.63632346666336     -0.14508652090865      1.81722547962769
| 38>   H           4.68574251562227      1.61596634946999     -1.19996590749858
| 39>   H          -2.04351372151773     -1.02404958311049      2.91649718067326
| 40>   H           2.71425212520736      2.63561595279662     -2.31394154034947
| 41>   H          -4.21896647816014      1.24707858004847     -1.94665665654190
| 42>   H           4.76891005873926     -2.16675207280313     -0.52839386550456
| 43>   H           0.52313241702669      2.71702099734835     -2.43692646469056
| 44>   H          -4.37479898587664     -1.71686799129595      2.57238251894095
| 45>   H          -6.42514365999596      1.31776249640776     -0.90352511709048
| 46>   H          -6.22456740449991     -0.46137522771443     -0.34870700955599
| 47>   H           4.76449697679949     -3.82974087689290      1.25853018215849
| 48>   H           4.67790680535897     -2.47686350381472      2.54175443309380
| 49>   O          -3.74465437676214     -1.80997173796415      4.39654989954555
| 50>   O          -4.72498537483523     -1.98290884137519      3.56238270119916
| 51> *
| 52>
| 53>                          ****END OF INPUT****

CARTESIAN COORDINATES (ANGSTROEM)
---------------------------------
  O      0.204006    2.031051   -1.844440
  O     -4.047587   -1.439509    1.260092
  C      1.048560    0.443222   -0.271102
  C     -0.304684   -0.007841    0.126304
  C     -2.593403   -0.676910   -0.436457
  C     -1.344685   -0.197657   -0.802739
  C      3.496710    0.294589    0.032492
  C      2.188543   -0.106121    0.330866
  C      1.274299    1.450991   -1.240793
  C     -0.592409   -0.320443    1.468707
  C     -2.888394   -0.994791    0.932510
  C     -3.708115   -0.850401   -1.442715
  C      4.674318   -0.354642    0.734514
  C      3.678307    1.282799   -0.931161
  C     -1.830673   -0.794345    1.867425
  C      2.570612    1.851703   -1.560925
  C     -4.624372    0.346513   -1.464211
  C      4.738060   -1.841886    0.519700
  C     -5.827283    0.400840   -0.892603
  C      4.731583   -2.760645    1.485168
  H     -1.160918    0.025499   -1.858008
  H      2.036802   -0.907423    1.060351
  H      0.179879   -0.164647    2.230735
  H     -3.281374   -1.000941   -2.449635
  H     -4.289135   -1.745261   -1.172336
  H      5.605684    0.102825    0.357886
  H      4.636323   -0.145087    1.817225
  H      4.685743    1.615966   -1.199966
  H     -2.043514   -1.024050    2.916497
  H      2.714252    2.635616   -2.313942
  H     -4.218966    1.247079   -1.946657
  H      4.768910   -2.166752   -0.528394
  H      0.523132    2.717021   -2.436926
  H     -4.374799   -1.716868    2.572383
  H     -6.425144    1.317762   -0.903525
  H     -6.224567   -0.461375   -0.348707
  H      4.764497   -3.829741    1.258530
  H      4.677907   -2.476864    2.541754
  O     -3.744654   -1.809972    4.396550
  O     -4.724985   -1.982909    3.562383

 Total Charge           Charge          ....   -1
 Multiplicity           Mult            ....    2
 Number of Electrons    NEL             ....  159
 Basis Dimension        Dim             ....  934

ORBITAL ENERGIES
----------------
                 SPIN UP ORBITALS
  NO   OCC          E(Eh)            E(eV)
   0   1.0000     -19.172819      -521.7189
   1   1.0000     -19.144746      -520.9550
   2   1.0000     -19.123645      -520.3808
   3   1.0000     -19.036963      -518.0221
   4   1.0000     -10.249651      -278.9072
   5   1.0000     -10.213068      -277.9117
   6   1.0000     -10.209785      -277.8224
   7   1.0000     -10.200092      -277.5586
   8   1.0000     -10.197145      -277.4784
   9   1.0000     -10.195024      -277.4207
  10   1.0000     -10.194469      -277.4056
  11   1.0000     -10.193311      -277.3741
  12   1.0000     -10.187073      -277.2044
  13   1.0000     -10.182877      -277.0902
  14   1.0000     -10.166668      -276.6491
  15   1.0000     -10.155678      -276.3501
  16   1.0000     -10.152412      -276.2612
  17   1.0000     -10.148735      -276.1611
  18   1.0000     -10.148164      -276.1456
  19   1.0000     -10.147677      -276.1323
  20   1.0000     -10.137666      -275.8599
  21   1.0000     -10.121645      -275.4240
  22   1.0000      -1.128994       -30.7215
  23   1.0000      -1.093979       -29.7687
  24   1.0000      -0.967623       -26.3304
  25   1.0000      -0.889119       -24.1942
  26   1.0000      -0.843108       -22.9421
  27   1.0000      -0.829661       -22.5762
  28   1.0000      -0.797496       -21.7010
  29   1.0000      -0.777453       -21.1556
  30   1.0000      -0.774140       -21.0654
  31   1.0000      -0.770156       -20.9570
  32   1.0000      -0.730885       -19.8884
  33   1.0000      -0.710835       -19.3428
  34   1.0000      -0.697268       -18.9736
  35   1.0000      -0.659942       -17.9579
  36   1.0000      -0.643235       -17.5033
  37   1.0000      -0.611037       -16.6272
  38   1.0000      -0.589737       -16.0476
  39   1.0000      -0.572843       -15.5879
  40   1.0000      -0.558947       -15.2097
  41   1.0000      -0.550683       -14.9849
  42   1.0000      -0.532898       -14.5009
  43   1.0000      -0.514367       -13.9966
  44   1.0000      -0.490322       -13.3423
  45   1.0000      -0.482088       -13.1183
  46   1.0000      -0.475779       -12.9466
  47   1.0000      -0.460203       -12.5228
  48   1.0000      -0.458144       -12.4667
  49   1.0000      -0.451383       -12.2828
  50   1.0000      -0.440347       -11.9825
  51   1.0000      -0.433614       -11.7992
  52   1.0000      -0.422115       -11.4863
  53   1.0000      -0.418525       -11.3886
  54   1.0000      -0.412653       -11.2288
  55   1.0000      -0.405598       -11.0369
  56   1.0000      -0.404633       -11.0106
  57   1.0000      -0.400763       -10.9053
  58   1.0000      -0.390236       -10.6189
  59   1.0000      -0.382264       -10.4019
  60   1.0000      -0.377020       -10.2592
  61   1.0000      -0.370150       -10.0723
  62   1.0000      -0.360516        -9.8101
  63   1.0000      -0.352811        -9.6005
  64   1.0000      -0.349886        -9.5209
  65   1.0000      -0.342607        -9.3228
  66   1.0000      -0.339272        -9.2321
  67   1.0000      -0.321661        -8.7528
  68   1.0000      -0.313770        -8.5381
  69   1.0000      -0.299410        -8.1473
  70   1.0000      -0.290648        -7.9089
  71   1.0000      -0.282329        -7.6826
  72   1.0000      -0.243555        -6.6275
  73   1.0000      -0.240917        -6.5557
  74   1.0000      -0.220345        -5.9959
  75   1.0000      -0.214520        -5.8374
  76   1.0000      -0.207235        -5.6392
  77   1.0000      -0.197825        -5.3831
  78   1.0000      -0.177886        -4.8405
  79   1.0000      -0.129019        -3.5108
  80   0.0000       0.139943         3.8080
  81   0.0000       0.156087         4.2474
  82   0.0000       0.171409         4.6643
  83   0.0000       0.187816         5.1107
  84   0.0000       0.190886         5.1943

                 SPIN DOWN ORBITALS
  NO   OCC          E(Eh)            E(eV)
   0   1.0000     -19.172818      -521.7189
   1   1.0000     -19.135583      -520.7057
   2   1.0000     -19.108851      -519.9783
   3   1.0000     -19.037030      -518.0239
   4   1.0000     -10.249649      -278.9071
   5   1.0000     -10.213068      -277.9117
   6   1.0000     -10.209785      -277.8224
   7   1.0000     -10.200092      -277.5586
   8   1.0000     -10.197146      -277.4785
   9   1.0000     -10.195023      -277.4207
  10   1.0000     -10.194469      -277.4056
  11   1.0000     -10.193313      -277.3742
  12   1.0000     -10.187083      -277.2046
  13   1.0000     -10.182874      -277.0901
  14   1.0000     -10.166667      -276.6491
  15   1.0000     -10.155680      -276.3501
  16   1.0000     -10.152412      -276.2612
  17   1.0000     -10.148738      -276.1612
  18   1.0000     -10.148165      -276.1456
  19   1.0000     -10.147673      -276.1322
  20   1.0000     -10.137660      -275.8597
  21   1.0000     -10.121658      -275.4243
  22   1.0000      -1.099098       -29.9080
  23   1.0000      -1.093978       -29.7686
  24   1.0000      -0.967458       -26.3259
  25   1.0000      -0.889116       -24.1941
  26   1.0000      -0.843091       -22.9417
  27   1.0000      -0.829578       -22.5740
  28   1.0000      -0.797372       -21.6976
  29   1.0000      -0.777002       -21.1433
  30   1.0000      -0.772308       -21.0156
  31   1.0000      -0.731503       -19.9052
  32   1.0000      -0.729791       -19.8586
  33   1.0000      -0.710687       -19.3388
  34   1.0000      -0.696638       -18.9565
  35   1.0000      -0.659878       -17.9562
  36   1.0000      -0.643223       -17.5030
  37   1.0000      -0.610888       -16.6231
  38   1.0000      -0.589683       -16.0461
  39   1.0000      -0.572633       -15.5821
  40   1.0000      -0.558924       -15.2091
  41   1.0000      -0.550425       -14.9778
  42   1.0000      -0.532888       -14.5006
  43   1.0000      -0.514217       -13.9926
  44   1.0000      -0.486297       -13.2328
  45   1.0000      -0.477267       -12.9871
  46   1.0000      -0.474973       -12.9247
  47   1.0000      -0.460194       -12.5225
  48   1.0000      -0.458111       -12.4658
  49   1.0000      -0.450506       -12.2589
  50   1.0000      -0.439943       -11.9715
  51   1.0000      -0.433230       -11.7888
  52   1.0000      -0.422038       -11.4842
  53   1.0000      -0.411065       -11.1856
  54   1.0000      -0.405631       -11.0378
  55   1.0000      -0.403050       -10.9676
  56   1.0000      -0.391527       -10.6540
  57   1.0000      -0.383587       -10.4379
  58   1.0000      -0.381453       -10.3799
  59   1.0000      -0.376843       -10.2544
  60   1.0000      -0.369971       -10.0674
  61   1.0000      -0.359861        -9.7923
  62   1.0000      -0.353210        -9.6113
  63   1.0000      -0.349622        -9.5137
  64   1.0000      -0.342370        -9.3163
  65   1.0000      -0.339725        -9.2444
  66   1.0000      -0.328721        -8.9450
  67   1.0000      -0.321199        -8.7403
  68   1.0000      -0.313213        -8.5230
  69   1.0000      -0.299266        -8.1435
  70   1.0000      -0.289980        -7.8907
  71   1.0000      -0.282307        -7.6820
  72   1.0000      -0.243261        -6.6195
  73   1.0000      -0.239605        -6.5200
  74   1.0000      -0.217032        -5.9057
  75   1.0000      -0.212307        -5.7772
  76   1.0000      -0.197847        -5.3837
  77   1.0000      -0.165012        -4.4902
  78   1.0000      -0.129332        -3.5193
  79   0.0000       0.139772         3.8034
  80   0.0000       0.155807         4.2397
  81   0.0000       0.156460         4.2575
  82   0.0000       0.171516         4.6672
  83   0.0000       0.187865         5.1121

MULLIKEN ATOMIC CHARGES AND SPIN POPULATIONS
--------------------------------------------
   0 O :   -0.289430    0.000015
   1 O :   -0.563689   -0.001127
   2 C :    0.039512   -0.000291
   3 C :    0.085225    0.000955
   4 C :   -0.058881    0.000678
   5 C :   -0.128242   -0.000449
   6 C :   -0.020889   -0.000108
   7 C :   -0.162684    0.000252
   8 C :    0.200791    0.000167
   9 C :   -0.208719    0.000012
  10 C :    0.241972   -0.000380
  11 C :   -0.071140   -0.000152
  12 C :   -0.088402    0.000010
  13 C :   -0.131565    0.000206
  14 C :   -0.217210    0.000472
  15 C :   -0.187773   -0.000100
  16 C :   -0.143902    0.000057
  17 C :   -0.127317   -0.000005
  18 C :   -0.210771    0.000005
  19 C :   -0.219071    0.000003
  20 H :    0.057668   -0.000002
  21 H :    0.114516    0.000008
  22 H :    0.087637    0.000013
  23 H :    0.058256    0.000012
  24 H :    0.072747    0.000015
  25 H :    0.068359   -0.000000
  26 H :    0.082396   -0.000003
  27 H :    0.084923   -0.000007
  28 H :    0.115937   -0.003299
  29 H :    0.060518    0.000002
  30 H :    0.079113   -0.000004
  31 H :    0.103265   -0.000000
  32 H :    0.164081   -0.000001
  33 H :    0.252349   -0.004825
  34 H :    0.072582    0.000004
  35 H :    0.083589   -0.000007
  36 H :    0.092603   -0.000000
  37 H :    0.077744    0.000000
  38 O :   -0.285238    0.650388
  39 O :   -0.180860    0.357488
Sum of atomic charges         :   -1.0000000

LOEWDIN ATOMIC CHARGES AND SPIN POPULATIONS
-------------------------------------------
   0 O :    0.354524    0.000019
   1 O :    0.091230   -0.001608
   2 C :   -0.051765   -0.000003
   3 C :   -0.116864    0.000566
   4 C :   -0.089258    0.000368
   5 C :   -0.014602   -0.000206
   6 C :   -0.100220   -0.000038
   7 C :    0.015754    0.000134
   8 C :   -0.184618    0.000096
   9 C :   -0.035726   -0.000116
  10 C :   -0.286575   -0.000505
  11 C :   -0.040178    0.000019
  12 C :   -0.031299   -0.000005
  13 C :   -0.042649    0.000129
  14 C :   -0.043832   -0.000562
  15 C :   -0.057726   -0.000034
  16 C :   -0.038332    0.000020
  17 C :   -0.034375   -0.000003
  18 C :   -0.016919    0.000005
  19 C :   -0.011842    0.000001
  20 H :    0.016599   -0.000034
  21 H :    0.033756    0.000007
  22 H :    0.016291   -0.000020
  23 H :    0.019562    0.000001
  24 H :    0.031348   -0.000004
  25 H :    0.029438    0.000000
  26 H :    0.033226   -0.000002
  27 H :    0.013793    0.000011
  28 H :    0.006247   -0.001581
  29 H :    0.009011   -0.000005
  30 H :    0.010593    0.000000
  31 H :    0.020484   -0.000000
  32 H :   -0.121584    0.000001
  33 H :   -0.253373    0.012147
  34 H :   -0.009763    0.000002
  35 H :    0.004907   -0.000003
  36 H :   -0.000096    0.000000
  37 H :    0.001250    0.000000
  38 O :   -0.223000    0.637027
  39 O :    0.096583    0.354175

  Mayer bond orders larger than 0.100000
B(  0-O ,  8-C ) :   1.1125 B(  0-O , 32-H ) :   1.0155 B(  1-O , 10-C ) :   1.4959
B(  1-O , 33-H ) :   0.3616 B(  2-C ,  3-C ) :   0.9071 B(  2-C ,  7-C ) :   1.4410
B(  2-C ,  8-C ) :   1.2983 B(  3-C ,  5-C ) :   1.3246 B(  3-C ,  9-C ) :   1.3261
B(  4-C ,  5-C ) :   1.5014 B(  4-C , 10-C ) :   1.2574 B(  4-C , 11-C ) :   0.9220
B(  5-C , 20-H ) :   0.9608 B(  6-C ,  7-C ) :   1.4062 B(  6-C , 12-C ) :   0.9279
B(  6-C , 13-C ) :   1.4013 B(  7-C , 21-H ) :   0.9480 B(  8-C , 15-C ) :   1.4233
B(  9-C , 14-C ) :   1.5265 B(  9-C , 22-H ) :   0.9754 B( 10-C , 14-C ) :   1.2921
B( 11-C , 16-C ) :   0.9300 B( 11-C , 23-H ) :   1.0155 B( 11-C , 24-H ) :   0.9915
B( 12-C , 17-C ) :   0.9446 B( 12-C , 25-H ) :   1.0004 B( 12-C , 26-H ) :   1.0007
B( 13-C , 15-C ) :   1.4395 B( 13-C , 27-H ) :   0.9713 B( 14-C , 28-H ) :   0.9496
B( 15-C , 29-H ) :   0.9741 B( 16-C , 18-C ) :   1.9288 B( 16-C , 30-H ) :   0.9808
B( 17-C , 19-C ) :   1.9113 B( 17-C , 31-H ) :   0.9789 B( 18-C , 34-H ) :   0.9965
B( 18-C , 35-H ) :   0.9894 B( 19-C , 36-H ) :   0.9960 B( 19-C , 37-H ) :   0.9959
B( 33-H , 39-O ) :   0.7030 B( 38-O , 39-O ) :   1.2768

Dispersion correction           -0.017251443
FINAL SINGLE POINT ENERGY      -997.655593087765

DIPOLE MOMENT
-------------

Method             : SCF
Type of density    : Electron Density
Multiplicity       :   2
Irrep              :   0
Energy             :  -997.6383416445517014 Eh
Relativity type    :
Basis              : AO
                                X                 Y                 Z
Electronic contribution:     -5.479268393       2.198949828       3.011483662
Nuclear contribution   :     10.078342080      -0.469283717      -5.893509626
                        -----------------------------------------
Total Dipole Moment    :      4.599073686       1.729666111      -2.882025964
                        -----------------------------------------
Magnitude (a.u.)       :      5.696428467
Magnitude (Debye)      :     14.479170485

Rotational constants in cm-1:             0.013011             0.004579             0.003620
Rotational constants in MHz :           390.047347           137.275151           108.519162

                             ****ORCA TERMINATED NORMALLY****
TOTAL RUN TIME: 0 days 0 hours 1 minutes 45 seconds 885 msec
