                         Program Version 6.0.1  -  RELEASE   -
|  1> ! wB97X-D3 def2-SVP OPT NormalSCF
|  2>
|  3> %pal
|  4> nprocs 28
|  5> end
|  6>
|  7> %maxcore 3500
|  8>
|  9> %scf
| 10>  SmearTemp 500
| 11> end
| 12>
| 13> * xyz -1 2
| 14> O 0.17169 2.05725 -1.80272
| 15> O -4.09357 -1.39903 1.23266
| 16> C 1.05035 0.444506 -0.274697
| 17> C -0.305395 -0.008963 0.123537
| 18> C -2.60471 -0.656007 -0.45342
| 19> C -1.33946 -0.192201 -0.812935
| 20> C 3.49412 0.268234 0.005916
| 21> C 2.187 -0.132062 0.311259
| 22> C 1.25772 1.47238 -1.22471
| 23> C -0.586309 -0.30619 1.46633
| 24> C -2.85416 -0.945741 0.902383
| 25> C -3.71693 -0.800485 -1.46975
| 26> C 4.67964 -0.392949 0.686038
| 27> C 3.66369 1.28446 -0.938877
| 28> C -1.84297 -0.770883 1.85232
| 29> C 2.55644 1.87872 -1.54619
| 30> C -4.63815 0.394721 -1.45695
| 31> C 4.6667 -1.89288 0.565789
| 32> C -5.92081 0.372055 -1.08833
| 33> C 4.6241 -2.74581 1.5929
| 34> H -1.14861 0.030136 -1.86322
| 35> H 2.04281 -0.949452 1.02155
| 36> H 0.182952 -0.156 2.22669
| 37> H -3.26638 -0.903905 -2.47151
| 38> H -4.29679 -1.71395 -1.26747
| 39> H 5.60741 0.003244 0.237321
| 40> H 4.70509 -0.115308 1.75487
| 41> H 4.66929 1.61904 -1.20833
| 42> H -2.04661 -0.992006 2.90519
| 43> H 2.69827 2.67735 -2.28197
| 44> H -4.17593 1.34601 -1.75068
| 45> H 4.67321 -2.28492 -0.459296
| 46> H 0.470608 2.7632 -2.39045
| 47> H -4.13363 -1.55431 2.18514
| 48> H -6.53208 1.27926 -1.08624
| 49> H -6.40214 -0.556626 -0.765117
| 50> H 4.60897 -3.8286 1.43968
| 51> H 4.60538 -2.38987 2.62898
| 52> O -3.28691 -2.15149 4.48181
| 53> O -4.47543 -2.06453 4.41933
| 54> *
| 55>
| 56>                          ****END OF INPUT****
 Total Charge           Charge          ....   -1
 Multiplicity           Mult            ....    2
 Number of Electrons    NEL             ....  159
Dispersion correction           -0.017208814
FINAL SINGLE POINT ENERGY      -996.501224460571
Dispersion correction             ... done (  0.0 sec)
Dispersion correction           -0.017226414
FINAL SINGLE POINT ENERGY      -996.522191922713
Dispersion correction             ... done (  0.0 sec)
Dispersion correction           -0.017239372
FINAL SINGLE POINT ENERGY      -996.527539986844
Dispersion correction             ... done (  0.0 sec)
FINAL SINGLE POINT ENERGY      -996.533171649586
FINAL SINGLE POINT ENERGY      -996.538502895057
FINAL SINGLE POINT ENERGY      -996.542581992014
FINAL SINGLE POINT ENERGY      -996.545861201406
FINAL SINGLE POINT ENERGY      -996.548251180181
FINAL SINGLE POINT ENERGY      -996.549313262637
FINAL SINGLE POINT ENERGY      -996.549762155656
FINAL SINGLE POINT ENERGY      -996.552982488429
FINAL SINGLE POINT ENERGY      -996.552985987030
FINAL SINGLE POINT ENERGY      -996.552989135057
FINAL SINGLE POINT ENERGY      -996.552995434324
FINAL SINGLE POINT ENERGY      -996.553001369371
FINAL SINGLE POINT ENERGY      -996.553003789580
FINAL SINGLE POINT ENERGY      -996.553003123422
Dispersion correction             ... done (  0.1 sec)
Dispersion correction           -0.017252080
FINAL SINGLE POINT ENERGY      -996.553009529454
Dispersion correction             ... done (  0.0 sec)
Dispersion correction           -0.017253609
FINAL SINGLE POINT ENERGY      -996.553013040909
Dispersion correction             ... done (  0.0 sec)
                    ***********************HURRAY********************

CARTESIAN COORDINATES (ANGSTROEM)
---------------------------------
  O      0.204006    2.031051   -1.844440
  O     -4.047587   -1.439509    1.260092
  C      1.048560    0.443222   -0.271102
  C     -0.304684   -0.007841    0.126304
  C     -2.593403   -0.676910   -0.436457
  C     -1.344685   -0.197657   -0.802739
  C      3.496710    0.294589    0.032492
  C      2.188543   -0.106121    0.330866
  C      1.274299    1.450991   -1.240793
  C     -0.592409   -0.320443    1.468707
  C     -2.888394   -0.994791    0.932510
  C     -3.708115   -0.850401   -1.442715
  C      4.674318   -0.354642    0.734514
  C      3.678307    1.282799   -0.931161
  C     -1.830673   -0.794345    1.867425
  C      2.570612    1.851703   -1.560925
  C     -4.624372    0.346513   -1.464211
  C      4.738060   -1.841886    0.519700
  C     -5.827283    0.400840   -0.892603
  C      4.731583   -2.760645    1.485168
  H     -1.160918    0.025499   -1.858008
  H      2.036802   -0.907423    1.060351
  H      0.179879   -0.164647    2.230735
  H     -3.281374   -1.000941   -2.449635
  H     -4.289135   -1.745261   -1.172336
  H      5.605684    0.102825    0.357886
  H      4.636323   -0.145087    1.817225
  H      4.685743    1.615966   -1.199966
  H     -2.043514   -1.024050    2.916497
  H      2.714252    2.635616   -2.313942
  H     -4.218966    1.247079   -1.946657
  H      4.768910   -2.166752   -0.528394
  H      0.523132    2.717021   -2.436926
  H     -4.374799   -1.716868    2.572383
  H     -6.425144    1.317762   -0.903525
  H     -6.224567   -0.461375   -0.348707
  H      4.764497   -3.829741    1.258530
  H      4.677907   -2.476864    2.541754
  O     -3.744654   -1.809972    4.396550
  O     -4.724985   -1.982909    3.562383

 Multiplicity           Mult            ....    2
 Number of Electrons    NEL             ....  159
 Basis Dimension        Dim             ....  398

ORBITAL ENERGIES
----------------
                 SPIN UP ORBITALS
  NO   OCC          E(Eh)            E(eV)
   0   1.0000     -19.177050      -521.8341
   1   1.0000     -19.137730      -520.7641
   2   1.0000     -19.118227      -520.2334
   3   1.0000     -19.037995      -518.0502
   4   1.0000     -10.258187      -279.1395
   5   1.0000     -10.224444      -278.2213
   6   1.0000     -10.220976      -278.1269
   7   1.0000     -10.214378      -277.9474
   8   1.0000     -10.206081      -277.7216
   9   1.0000     -10.205371      -277.7023
  10   1.0000     -10.205146      -277.6962
  11   1.0000     -10.199754      -277.5494
  12   1.0000     -10.193557      -277.3808
  13   1.0000     -10.192863      -277.3619
  14   1.0000     -10.176699      -276.9221
  15   1.0000     -10.165052      -276.6051
  16   1.0000     -10.164750      -276.5969
  17   1.0000     -10.156955      -276.3848
  18   1.0000     -10.156262      -276.3659
  19   1.0000     -10.153151      -276.2813
  20   1.0000     -10.142253      -275.9847
  21   1.0000     -10.127654      -275.5875
  22   1.0000      -1.106828       -30.1183
  23   1.0000      -1.077498       -29.3202
  24   1.0000      -0.947541       -25.7839
  25   1.0000      -0.880052       -23.9474
  26   1.0000      -0.833388       -22.6776
  27   1.0000      -0.818672       -22.2772
  28   1.0000      -0.786472       -21.4010
  29   1.0000      -0.767404       -20.8821
  30   1.0000      -0.762435       -20.7469
  31   1.0000      -0.744061       -20.2469
  32   1.0000      -0.719117       -19.5682
  33   1.0000      -0.701996       -19.1023
  34   1.0000      -0.685809       -18.6618
  35   1.0000      -0.649744       -17.6804
  36   1.0000      -0.636953       -17.3324
  37   1.0000      -0.602856       -16.4045
  38   1.0000      -0.582785       -15.8584
  39   1.0000      -0.564552       -15.3622
  40   1.0000      -0.555005       -15.1025
  41   1.0000      -0.542207       -14.7542
  42   1.0000      -0.524924       -14.2839
  43   1.0000      -0.511556       -13.9201
  44   1.0000      -0.483395       -13.1539
  45   1.0000      -0.475507       -12.9392
  46   1.0000      -0.471664       -12.8346
  47   1.0000      -0.457353       -12.4452
  48   1.0000      -0.455874       -12.4050
  49   1.0000      -0.447452       -12.1758
  50   1.0000      -0.437289       -11.8993
  51   1.0000      -0.429682       -11.6923
  52   1.0000      -0.417736       -11.3672
  53   1.0000      -0.407707       -11.0943
  54   1.0000      -0.406375       -11.0580
  55   1.0000      -0.402191       -10.9442
  56   1.0000      -0.398402       -10.8411
  57   1.0000      -0.390648       -10.6301
  58   1.0000      -0.384837       -10.4720
  59   1.0000      -0.377775       -10.2798
  60   1.0000      -0.374379       -10.1874
  61   1.0000      -0.365609        -9.9487
  62   1.0000      -0.357602        -9.7308
  63   1.0000      -0.348400        -9.4804
  64   1.0000      -0.345598        -9.4042
  65   1.0000      -0.338601        -9.2138
  66   1.0000      -0.335778        -9.1370
  67   1.0000      -0.317775        -8.6471
  68   1.0000      -0.310235        -8.4419
  69   1.0000      -0.294533        -8.0146
  70   1.0000      -0.285081        -7.7574
  71   1.0000      -0.280224        -7.6253
  72   1.0000      -0.239942        -6.5292
  73   1.0000      -0.235594        -6.4108
  74   1.0000      -0.213595        -5.8122
  75   1.0000      -0.208948        -5.6858
  76   1.0000      -0.195420        -5.3176
  77   1.0000      -0.193049        -5.2531
  78   1.0000      -0.166738        -4.5372
  79   1.0000      -0.121535        -3.3071
  80   0.0000       0.149014         4.0549
  81   0.0000       0.164857         4.4860
  82   0.0000       0.181020         4.9258
  83   0.0000       0.201111         5.4725
  84   0.0000       0.218194         5.9374

                 SPIN DOWN ORBITALS
  NO   OCC          E(Eh)            E(eV)
   0   1.0000     -19.177050      -521.8341
   1   1.0000     -19.128820      -520.5217
   2   1.0000     -19.103543      -519.8338
   3   1.0000     -19.038079      -518.0525
   4   1.0000     -10.258186      -279.1394
   5   1.0000     -10.224444      -278.2213
   6   1.0000     -10.220976      -278.1269
   7   1.0000     -10.214378      -277.9474
   8   1.0000     -10.206079      -277.7215
   9   1.0000     -10.205371      -277.7023
  10   1.0000     -10.205147      -277.6962
  11   1.0000     -10.199756      -277.5495
  12   1.0000     -10.193564      -277.3810
  13   1.0000     -10.192861      -277.3619
  14   1.0000     -10.176698      -276.9220
  15   1.0000     -10.165052      -276.6051
  16   1.0000     -10.164751      -276.5969
  17   1.0000     -10.156957      -276.3848
  18   1.0000     -10.156266      -276.3661
  19   1.0000     -10.153145      -276.2811
  20   1.0000     -10.142250      -275.9847
  21   1.0000     -10.127670      -275.5879
  22   1.0000      -1.077497       -29.3202
  23   1.0000      -1.077237       -29.3131
  24   1.0000      -0.947402       -25.7801
  25   1.0000      -0.880051       -23.9474
  26   1.0000      -0.833380       -22.6774
  27   1.0000      -0.818613       -22.2756
  28   1.0000      -0.786405       -21.3992
  29   1.0000      -0.767362       -20.8810
  30   1.0000      -0.762253       -20.7420
  31   1.0000      -0.719217       -19.5709
  32   1.0000      -0.705281       -19.1917
  33   1.0000      -0.701126       -19.0786
  34   1.0000      -0.684372       -18.6227
  35   1.0000      -0.649650       -17.6779
  36   1.0000      -0.636938       -17.3320
  37   1.0000      -0.602672       -16.3996
  38   1.0000      -0.582728       -15.8568
  39   1.0000      -0.564303       -15.3555
  40   1.0000      -0.555004       -15.1024
  41   1.0000      -0.541927       -14.7466
  42   1.0000      -0.524918       -14.2837
  43   1.0000      -0.511439       -13.9170
  44   1.0000      -0.482116       -13.1190
  45   1.0000      -0.472314       -12.8523
  46   1.0000      -0.466367       -12.6905
  47   1.0000      -0.457347       -12.4450
  48   1.0000      -0.455802       -12.4030
  49   1.0000      -0.446324       -12.1451
  50   1.0000      -0.436895       -11.8885
  51   1.0000      -0.429192       -11.6789
  52   1.0000      -0.417616       -11.3639
  53   1.0000      -0.405626       -11.0377
  54   1.0000      -0.402302       -10.9472
  55   1.0000      -0.396944       -10.8014
  56   1.0000      -0.387656       -10.5487
  57   1.0000      -0.378073       -10.2879
  58   1.0000      -0.374258       -10.1841
  59   1.0000      -0.369399       -10.0519
  60   1.0000      -0.365217        -9.9381
  61   1.0000      -0.357015        -9.7149
  62   1.0000      -0.348430        -9.4813
  63   1.0000      -0.345065        -9.3897
  64   1.0000      -0.338292        -9.2054
  65   1.0000      -0.336028        -9.1438
  66   1.0000      -0.319113        -8.6835
  67   1.0000      -0.315907        -8.5963
  68   1.0000      -0.309584        -8.4242
  69   1.0000      -0.294389        -8.0107
  70   1.0000      -0.284546        -7.7429
  71   1.0000      -0.280173        -7.6239
  72   1.0000      -0.239791        -6.5251
  73   1.0000      -0.234701        -6.3865
  74   1.0000      -0.212258        -5.7758
  75   1.0000      -0.204833        -5.5738
  76   1.0000      -0.193190        -5.2570
  77   1.0000      -0.153010        -4.1636
  78   1.0000      -0.121836        -3.3153
  79   0.0000       0.148927         4.0525
  80   0.0000       0.164855         4.4859
  81   0.0000       0.172747         4.7007
  82   0.0000       0.181131         4.9288
  83   0.0000       0.201189         5.4746

LOEWDIN ATOMIC CHARGES AND SPIN POPULATIONS
-------------------------------------------
   0 O :   -0.049937    0.000012
   1 O :   -0.281299   -0.002179
   2 C :   -0.021684   -0.000086
   3 C :   -0.109348    0.000558
   4 C :   -0.095477    0.000393
   5 C :   -0.025752   -0.000283
   6 C :   -0.058911   -0.000061
   7 C :   -0.020276    0.000136
   8 C :    0.047677    0.000092
   9 C :   -0.032593   -0.000132
  10 C :    0.046461   -0.000495
  11 C :   -0.031923   -0.000032
  12 C :   -0.030348    0.000002
  13 C :   -0.056772    0.000127
  14 C :   -0.110001   -0.000767
  15 C :   -0.101448   -0.000051
  16 C :   -0.022097    0.000020
  17 C :   -0.020997   -0.000003
  18 C :   -0.087107    0.000010
  19 C :   -0.081779    0.000001
  20 H :    0.011181   -0.000012
  21 H :    0.030304   -0.000002
  22 H :    0.014179   -0.000013
  23 H :    0.016631    0.000002
  24 H :    0.029933    0.000006
  25 H :    0.029437   -0.000000
  26 H :    0.032927   -0.000002
  27 H :    0.017438   -0.000000
  28 H :    0.015993   -0.001882
  29 H :    0.016191    0.000000
  30 H :    0.015230    0.000000
  31 H :    0.027392   -0.000000
  32 H :    0.080812    0.000000
  33 H :    0.003923   -0.000499
  34 H :    0.010783    0.000001
  35 H :    0.026446   -0.000003
  36 H :    0.023727   -0.000000
  37 H :    0.021986   -0.000000
  38 O :   -0.242815    0.648898
  39 O :   -0.038086    0.356246

  Mayer bond orders larger than 0.100000
B(  0-O ,  8-C ) :   1.1932 B(  0-O , 32-H ) :   0.9686 B(  1-O , 10-C ) :   1.5350
B(  1-O , 33-H ) :   0.3364 B(  2-C ,  3-C ) :   0.9830 B(  2-C ,  7-C ) :   1.4250
B(  2-C ,  8-C ) :   1.3314 B(  3-C ,  5-C ) :   1.3275 B(  3-C ,  9-C ) :   1.3392
B(  4-C ,  5-C ) :   1.4666 B(  4-C , 10-C ) :   1.2289 B(  4-C , 11-C ) :   1.0328
B(  5-C , 20-H ) :   0.9819 B(  6-C ,  7-C ) :   1.3377 B(  6-C , 12-C ) :   1.0164
B(  6-C , 13-C ) :   1.4245 B(  7-C , 21-H ) :   0.9907 B(  8-C , 15-C ) :   1.3636
B(  9-C , 14-C ) :   1.4215 B(  9-C , 22-H ) :   0.9829 B( 10-C , 14-C ) :   1.2558
B( 11-C , 16-C ) :   1.0406 B( 11-C , 23-H ) :   0.9282 B( 11-C , 24-H ) :   0.9222
B( 12-C , 17-C ) :   1.0400 B( 12-C , 25-H ) :   0.9289 B( 12-C , 26-H ) :   0.9374
B( 13-C , 15-C ) :   1.3511 B( 13-C , 27-H ) :   0.9850 B( 14-C , 28-H ) :   0.9696
B( 15-C , 29-H ) :   0.9783 B( 16-C , 18-C ) :   2.0238 B( 16-C , 30-H ) :   0.9608
B( 17-C , 19-C ) :   1.9989 B( 17-C , 31-H ) :   0.9647 B( 18-C , 34-H ) :   0.9578
B( 18-C , 35-H ) :   0.9506 B( 19-C , 36-H ) :   0.9587 B( 19-C , 37-H ) :   0.9620
B( 33-H , 39-O ) :   0.7011 B( 38-O , 39-O ) :   1.3552

Dispersion correction           -0.017251443
FINAL SINGLE POINT ENERGY      -996.553015781015

DIPOLE MOMENT
-------------

Method             : SCF
Type of density    : Electron Density
Multiplicity       :   2
Irrep              :   0
Energy             :  -996.5357643378017656 Eh
Relativity type    :
Basis              : AO
                                X                 Y                 Z
Electronic contribution:     -5.540949516       2.180441115       3.025358866
Nuclear contribution   :     10.078342080      -0.469283717      -5.893509626
                        -----------------------------------------
Total Dipole Moment    :      4.537392563       1.711157398      -2.868150760
                        -----------------------------------------
Magnitude (a.u.)       :      5.634028727
Magnitude (Debye)      :     14.320562950

Rotational constants in cm-1:             0.013011             0.004579             0.003620
Rotational constants in MHz :           390.047347           137.275151           108.519162

                             ****ORCA TERMINATED NORMALLY****
TOTAL RUN TIME: 0 days 0 hours 34 minutes 18 seconds 324 msec
