                         Program Version 6.0.1  -  RELEASE   -
|  1> ! B3LYP def2-SVP Opt TightSCF ALLPOP KEEPDENS D3BJ CPCM(WATER)
|  2>
|  3> %pal
|  4> nprocs 30
|  5> end
|  6>
|  7> * xyz 2 1
|  8> Zn         1.00193        0.97190        1.15225
|  9> H         -0.43578        0.00828        0.58118
| 10> O         -0.66189        0.92869        0.37719
| 11> H         -1.63102        0.95976        0.45168
| 12> H          2.64838        0.21573        1.29018
| 13> O          2.75994        0.89183        1.98181
| 14> H          3.52039        1.41362        1.68939
| 15> H          1.00134        2.95720       -0.65059
| 16> O          0.94780        2.67589        0.32453
| 17> H          1.85358        2.67106        0.66631
| 18> H          1.06390       -1.50572        2.04945
| 19> O          1.15830       -0.61680        2.43366
| 20> H          1.96617       -0.64591        2.97426
| 21> H         -0.58812        1.06554        3.08543
| 22> O         -0.34318        1.74954        2.43690
| 23> H          0.10842        2.45270        2.94433
| 24> H          1.23277       -0.24127       -1.28399
| 25> O          1.66947        0.39007       -0.62760
| 26> H          2.62027        0.43735       -0.80936
| 27> *
| 28>
| 29>                          ****END OF INPUT****
 Total Charge           Charge          ....    2
 Multiplicity           Mult            ....    1
 Number of Electrons    NEL             ....   88
 Basis Dimension        Dim             ....  175

ORBITAL ENERGIES
----------------

  NO   OCC          E(Eh)            E(eV)
   0   2.0000    -347.264652     -9449.5516
   1   2.0000     -42.221659     -1148.9097
   2   2.0000     -37.217379     -1012.7364
   3   2.0000     -37.214186     -1012.6495
   4   2.0000     -37.212398     -1012.6008
   5   2.0000     -19.209707      -522.7227
   6   2.0000     -19.197382      -522.3873
   7   2.0000     -19.189375      -522.1694
   8   2.0000     -19.177467      -521.8454
   9   2.0000     -19.169883      -521.6390
  10   2.0000     -19.169153      -521.6192
  11   2.0000      -4.831220      -131.4642
  12   2.0000      -3.229413       -87.8768
  13   2.0000      -3.224279       -87.7371
  14   2.0000      -3.222083       -87.6773
  15   2.0000      -1.091285       -29.6954
  16   2.0000      -1.063800       -28.9475
  17   2.0000      -1.047011       -28.4906
  18   2.0000      -1.041932       -28.3524
  19   2.0000      -1.038244       -28.2520
  20   2.0000      -1.026993       -27.9459
  21   2.0000      -0.632912       -17.2224
  22   2.0000      -0.615197       -16.7404
  23   2.0000      -0.594249       -16.1703
  24   2.0000      -0.585416       -15.9300
  25   2.0000      -0.572455       -15.5773
  26   2.0000      -0.565427       -15.3860
  27   2.0000      -0.547280       -14.8922
  28   2.0000      -0.541369       -14.7314
  29   2.0000      -0.533022       -14.5043
  30   2.0000      -0.515837       -14.0366
  31   2.0000      -0.507426       -13.8078
  32   2.0000      -0.485617       -13.2143
  33   2.0000      -0.472948       -12.8696
  34   2.0000      -0.451038       -12.2734
  35   2.0000      -0.441660       -12.0182
  36   2.0000      -0.411002       -11.1839
  37   2.0000      -0.403837       -10.9890
  38   2.0000      -0.389543       -10.6000
  39   2.0000      -0.377334       -10.2678
  40   2.0000      -0.359400        -9.7798
  41   2.0000      -0.350919        -9.5490
  42   2.0000      -0.333285        -9.0691
  43   2.0000      -0.322581        -8.7779
  44   0.0000      -0.024612        -0.6697
  45   0.0000       0.032630         0.8879
  46   0.0000       0.042712         1.1622
  47   0.0000       0.057813         1.5732
  48   0.0000       0.079251         2.1565

MULLIKEN ATOMIC CHARGES
-----------------------
   0 Zn:    0.602254
   1 H :    0.206207
   2 O :   -0.168909
   3 H :    0.225542
   4 H :    0.190659
   5 O :   -0.206615
   6 H :    0.242997
   7 H :    0.265765
   8 O :   -0.220936
   9 H :    0.205136
  10 H :    0.243483
  11 O :   -0.269467
  12 H :    0.241746
  13 H :    0.216904
  14 O :   -0.239177
  15 H :    0.228738
  16 H :    0.278440
  17 O :   -0.286564
  18 H :    0.243794
Sum of atomic charges:    2.0000000

LOEWDIN ATOMIC CHARGES
----------------------
   0 Zn:    0.665179
   1 H :    0.096992
   2 O :   -0.015318
   3 H :    0.134350
   4 H :    0.083461
   5 O :   -0.005310
   6 H :    0.136991
   7 H :    0.163420
   8 O :   -0.043971
   9 H :    0.091900
  10 H :    0.134266
  11 O :   -0.027847
  12 H :    0.123193
  13 H :    0.112570
  14 O :   -0.034249
  15 H :    0.121292
  16 H :    0.169424
  17 O :   -0.035536
  18 H :    0.129195

  Mayer bond orders larger than 0.100000
B(  0-Zn,  2-O ) :   0.3884 B(  0-Zn,  5-O ) :   0.3872 B(  0-Zn,  8-O ) :   0.4142
B(  0-Zn, 11-O ) :   0.3389 B(  0-Zn, 14-O ) :   0.3723 B(  0-Zn, 17-O ) :   0.3634
B(  1-H ,  2-O ) :   0.9309 B(  2-O ,  3-H ) :   0.9333 B(  4-H ,  5-O ) :   0.8996
B(  5-O ,  6-H ) :   0.9369 B(  7-H ,  8-O ) :   0.9152 B(  8-O ,  9-H ) :   0.9339
B( 10-H , 11-O ) :   0.9430 B( 11-O , 12-H ) :   0.9297 B( 13-H , 14-O ) :   0.9519
B( 14-O , 15-H ) :   0.9470 B( 16-H , 17-O ) :   0.9129 B( 17-O , 18-H ) :   0.9374

Dispersion correction           -0.027327875
FINAL SINGLE POINT ENERGY     -2236.785754762551
Dispersion correction             ... done (  0.1 sec)
Dispersion correction           -0.026893420
FINAL SINGLE POINT ENERGY     -2236.822564013296
Dispersion correction             ... done (  0.1 sec)
Dispersion correction           -0.026375984
FINAL SINGLE POINT ENERGY     -2236.850656782378
Dispersion correction             ... done (  0.0 sec)
FINAL SINGLE POINT ENERGY     -2236.871301544244
FINAL SINGLE POINT ENERGY     -2236.892288922837
FINAL SINGLE POINT ENERGY     -2236.908619381941
FINAL SINGLE POINT ENERGY     -2236.919171508548
FINAL SINGLE POINT ENERGY     -2236.926760915545
FINAL SINGLE POINT ENERGY     -2236.932769276013
FINAL SINGLE POINT ENERGY     -2236.937681038432
FINAL SINGLE POINT ENERGY     -2236.950830162219
FINAL SINGLE POINT ENERGY     -2236.950901753077
FINAL SINGLE POINT ENERGY     -2236.950951983257
FINAL SINGLE POINT ENERGY     -2236.951047736993
FINAL SINGLE POINT ENERGY     -2236.951144310895
FINAL SINGLE POINT ENERGY     -2236.951177825367
FINAL SINGLE POINT ENERGY     -2236.951211856629
Dispersion correction           -0.024321627
FINAL SINGLE POINT ENERGY     -2236.951258735513
Dispersion correction             ... done (  0.1 sec)
Dispersion correction           -0.024320458
FINAL SINGLE POINT ENERGY     -2236.951304073570
Dispersion correction             ... done (  0.1 sec)

CARTESIAN COORDINATES (ANGSTROEM)
---------------------------------
  Zn     1.019941    0.909297    1.131210
  H     -1.022921   -0.104535   -0.268315
  O     -0.877154    0.707955    0.247464
  H     -1.607401    0.731775    0.889305
  H      3.649463    1.005491    1.510871
  O      2.881431    1.032602    2.105485
  H      3.029729    1.797626    2.686182
  H      0.689650    2.994908   -0.508250
  O      1.163120    2.857355    0.329321
  H      2.061302    3.196713    0.176367
  H      0.205565   -1.599631    1.695490
  O      0.808002   -0.944408    2.084081
  H      1.631511   -1.425515    2.268430
  H      0.202470    1.481608    3.630441
  O      0.017409    1.827162    2.742340
  H      0.189510    2.782905    2.793738
  H      1.860387   -0.925889   -0.622453
  O      2.036991    0.018696   -0.475241
  H      1.953666    0.435343   -1.349457

Dispersion correction           -0.024323794
FINAL SINGLE POINT ENERGY     -2236.951355233971
Dispersion correction             ... done (  0.1 sec)
                             ****ORCA TERMINATED NORMALLY****
TOTAL RUN TIME: 0 days 0 hours 10 minutes 29 seconds 628 msec
