                         Program Version 6.0.1  -  RELEASE   -
|  1> ! B3LYP def2-SVP Opt TightSCF ALLPOP KEEPDENS D3BJ CPCM(WATER)
|  2>
|  3> %pal
|  4> nprocs 30
|  5> end
|  6>
|  7> * xyz 2 1
|  8>   Zn          1.01994068969050      0.90929699283428      1.13120960091320
|  9>   H          -1.02292091017138     -0.10453522622732     -0.26831504389550
| 10>   O          -0.87715386957812      0.70795536416758      0.24746376472793
| 11>   H          -1.60740138721062      0.73177531271219      0.88930533067741
| 12>   H           3.64946292186013      1.00549064949914      1.51087076393920
| 13>   O           2.88143122888440      1.03260248492820      2.10548545789577
| 14>   H           3.02972867034097      1.79762621501937      2.68618213047432
| 15>   H           0.68964964412255      2.99490784323767     -0.50824961502807
| 16>   O           1.16312029577888      2.85735488073469      0.32932147923052
| 17>   H           2.06130184891403      3.19671342244832      0.17636668041258
| 18>   H           0.20556472777393     -1.59963064853562      1.69549033520687
| 19>   O           0.80800228745371     -0.94440795293062      2.08408102630014
| 20>   H           1.63151067349032     -1.42551489525951      2.26842989440721
| 21>   H           0.20246958330257      1.48160787022712      3.63044074122844
| 22>   O           0.01740936673183      1.82716204422979      2.74234015267150
| 23>   H           0.18951048360265      2.78290537547324      2.79373794851503
| 24>   H           1.86038716354510     -0.92588934974872     -0.62245326148697
| 25>   O           2.03699093549326      0.01869645909013     -0.47524069059450
| 26>   H           1.95366564597525      0.43534315810004     -1.34945669559514
| 27> *
| 28>
| 29>                          ****END OF INPUT****
 Total Charge           Charge          ....    2
 Multiplicity           Mult            ....    1
 Number of Electrons    NEL             ....   88
Dispersion correction           -0.024323794
FINAL SINGLE POINT ENERGY     -2236.951355251434
Dispersion correction             ... done (  0.1 sec)
Dispersion correction           -0.024323056
FINAL SINGLE POINT ENERGY     -2236.951406385937
Dispersion correction             ... done (  0.1 sec)
Dispersion correction           -0.024322433
FINAL SINGLE POINT ENERGY     -2236.951482123568
Dispersion correction             ... done (  0.1 sec)
FINAL SINGLE POINT ENERGY     -2236.951503591491
FINAL SINGLE POINT ENERGY     -2236.951547503124
FINAL SINGLE POINT ENERGY     -2236.951568326945
FINAL SINGLE POINT ENERGY     -2236.951580151601
FINAL SINGLE POINT ENERGY     -2236.951587294011
FINAL SINGLE POINT ENERGY     -2236.951592816761
FINAL SINGLE POINT ENERGY     -2236.951596905580
FINAL SINGLE POINT ENERGY     -2236.951599022919
FINAL SINGLE POINT ENERGY     -2236.951600389726
FINAL SINGLE POINT ENERGY     -2236.951601892581
FINAL SINGLE POINT ENERGY     -2236.951603032116
FINAL SINGLE POINT ENERGY     -2236.951603776032
FINAL SINGLE POINT ENERGY     -2236.951604885466
Dispersion correction             ... done (  0.1 sec)
Dispersion correction           -0.024332192
FINAL SINGLE POINT ENERGY     -2236.951605238233
Dispersion correction             ... done (  0.1 sec)
Dispersion correction           -0.024334687
FINAL SINGLE POINT ENERGY     -2236.951605827872
Dispersion correction             ... done (  0.1 sec)
                    ***********************HURRAY********************

CARTESIAN COORDINATES (ANGSTROEM)
---------------------------------
  Zn     1.023645    0.910443    1.171163
  H     -0.953425   -0.027195   -0.389543
  O     -0.832467    0.732089    0.204321
  H     -1.605122    0.730290    0.793784
  H      3.654166    1.047328    1.454945
  O      2.910027    1.056408    2.080086
  H      3.064492    1.819373    2.661460
  H      0.608115    2.966810   -0.455882
  O      1.177663    2.829105    0.319513
  H      2.061700    3.128936    0.050586
  H      0.189126   -1.582628    1.728392
  O      0.777856   -0.931795    2.145158
  H      1.596944   -1.413143    2.349516
  H      0.151936    1.392626    3.651794
  O      0.036323    1.812228    2.783313
  H      0.228908    2.754858    2.918222
  H      1.877002   -0.920262   -0.603391
  O      2.027671    0.029583   -0.463624
  H      1.898113    0.444407   -1.332803

 Multiplicity           Mult            ....    1
 Number of Electrons    NEL             ....   88
 Basis Dimension        Dim             ....  175

ORBITAL ENERGIES
----------------

  NO   OCC          E(Eh)            E(eV)
   0   2.0000    -347.251440     -9449.1921
   1   2.0000     -42.205385     -1148.4669
   2   2.0000     -37.198968     -1012.2354
   3   2.0000     -37.198755     -1012.2296
   4   2.0000     -37.198576     -1012.2247
   5   2.0000     -19.183106      -521.9988
   6   2.0000     -19.182600      -521.9851
   7   2.0000     -19.182306      -521.9771
   8   2.0000     -19.182233      -521.9751
   9   2.0000     -19.182097      -521.9714
  10   2.0000     -19.180963      -521.9405
  11   2.0000      -4.808060      -130.8340
  12   2.0000      -3.201778       -87.1248
  13   2.0000      -3.201700       -87.1227
  14   2.0000      -3.201667       -87.1218
  15   2.0000      -1.043519       -28.3956
  16   2.0000      -1.034959       -28.1627
  17   2.0000      -1.034649       -28.1542
  18   2.0000      -1.034434       -28.1484
  19   2.0000      -1.031751       -28.0754
  20   2.0000      -1.031410       -28.0661
  21   2.0000      -0.568770       -15.4770
  22   2.0000      -0.566689       -15.4204
  23   2.0000      -0.566357       -15.4114
  24   2.0000      -0.565846       -15.3975
  25   2.0000      -0.564549       -15.3622
  26   2.0000      -0.563898       -15.3444
  27   2.0000      -0.520811       -14.1720
  28   2.0000      -0.520417       -14.1613
  29   2.0000      -0.509907       -13.8753
  30   2.0000      -0.481968       -13.1150
  31   2.0000      -0.479998       -13.0614
  32   2.0000      -0.478331       -13.0160
  33   2.0000      -0.462085       -12.5740
  34   2.0000      -0.455511       -12.3951
  35   2.0000      -0.445973       -12.1355
  36   2.0000      -0.402060       -10.9406
  37   2.0000      -0.400051       -10.8859
  38   2.0000      -0.374189       -10.1822
  39   2.0000      -0.368467       -10.0265
  40   2.0000      -0.360588        -9.8121
  41   2.0000      -0.354442        -9.6448
  42   2.0000      -0.338322        -9.2062
  43   2.0000      -0.337899        -9.1947
  44   0.0000      -0.013305        -0.3620
  45   0.0000       0.038853         1.0572
  46   0.0000       0.046623         1.2687
  47   0.0000       0.053717         1.4617
  48   0.0000       0.085588         2.3290

MULLIKEN ATOMIC CHARGES
-----------------------
   0 Zn:    0.881004
   1 H :    0.231174
   2 O :   -0.278368
   3 H :    0.234928
   4 H :    0.232213
   5 O :   -0.278528
   6 H :    0.232384
   7 H :    0.232999
   8 O :   -0.278315
   9 H :    0.230965
  10 H :    0.230683
  11 O :   -0.277623
  12 H :    0.234213
  13 H :    0.234044
  14 O :   -0.276709
  15 H :    0.232870
  16 H :    0.231100
  17 O :   -0.280566
  18 H :    0.231530
Sum of atomic charges:    2.0000000

LOEWDIN ATOMIC CHARGES
----------------------
   0 Zn:    0.722596
   1 H :    0.127640
   2 O :   -0.041346
   3 H :    0.127754
   4 H :    0.125671
   5 O :   -0.042250
   6 H :    0.128718
   7 H :    0.126082
   8 O :   -0.042709
   9 H :    0.128096
  10 H :    0.127585
  11 O :   -0.041592
  12 H :    0.127971
  13 H :    0.127506
  14 O :   -0.040969
  15 H :    0.125953
  16 H :    0.128096
  17 O :   -0.043448
  18 H :    0.128646

  Mayer bond orders larger than 0.100000
B(  0-Zn,  2-O ) :   0.3261 B(  0-Zn,  5-O ) :   0.3291 B(  0-Zn,  8-O ) :   0.3250
B(  0-Zn, 11-O ) :   0.3275 B(  0-Zn, 14-O ) :   0.3322 B(  0-Zn, 17-O ) :   0.3185
B(  1-H ,  2-O ) :   0.9496 B(  2-O ,  3-H ) :   0.9474 B(  4-H ,  5-O ) :   0.9475
B(  5-O ,  6-H ) :   0.9494 B(  7-H ,  8-O ) :   0.9475 B(  8-O ,  9-H ) :   0.9505
B( 10-H , 11-O ) :   0.9495 B( 11-O , 12-H ) :   0.9481 B( 13-H , 14-O ) :   0.9493
B( 14-O , 15-H ) :   0.9487 B( 16-H , 17-O ) :   0.9483 B( 17-O , 18-H ) :   0.9489

Dispersion correction           -0.024334976
FINAL SINGLE POINT ENERGY     -2236.951605955974

DIPOLE MOMENT
-------------

Method             : SCF
Type of density    : Electron Density
Multiplicity       :   1
Irrep              :   0
Energy             : -2236.9272709795804985 Eh
Relativity type    :
Basis              : AO
                                X                 Y                 Z
Electronic contribution:     -0.007126024      -0.013256237       0.097162647
Nuclear contribution   :      0.465552797      -0.563277396      -1.129711814
                        -----------------------------------------
Total Dipole Moment    :      0.458426773      -0.576533633      -1.032549167
                        -----------------------------------------
Magnitude (a.u.)       :      1.268346923
Magnitude (Debye)      :      3.223881673

Rotational constants in cm-1:             0.050253             0.049529             0.048847
Rotational constants in MHz :          1506.556014          1484.830143          1464.405665

                             ****ORCA TERMINATED NORMALLY****
TOTAL RUN TIME: 0 days 0 hours 3 minutes 4 seconds 640 msec
