                         Program Version 6.0.1  -  RELEASE   -
|  1> ! B3LYP def2-SVP SP TightSCF ALLPOP KEEPDENS NBO ChelpG
|  2>
|  3> %maxcore 5000
|  4>
|  5> %pal
|  6> nprocs 20
|  7> end
|  8>
|  9> * xyz 0 1
| 10>   O           2.72106007608871      1.08323763828731     -0.00015103320486
| 11>   O           2.72107943957371     -1.08324198135124     -0.00041228699222
| 12>   N           2.15037284543795     -0.00002183788955     -0.00015934432804
| 13>   N          -3.47453808116522      0.00000558012858      0.00128483926913
| 14>   C           0.69052885951022     -0.00000185009049      0.00008916675735
| 15>   C          -2.11038101725365     -0.00000011793917      0.00044015930269
| 16>   C           0.00033511258637      1.21620031429974      0.00033837143255
| 17>   C           0.00033608109544     -1.21620250086961      0.00000613395529
| 18>   C          -1.38584599970432      1.21636063348825      0.00050477456552
| 19>   C          -1.38584684629252     -1.21635986002734      0.00017288529722
| 20>   H           0.56911429538207      2.14558140687903      0.00035488299633
| 21>   H           0.56912230879670     -2.14558091746905     -0.00022709238172
| 22>   H          -1.92907885184911      2.16481816115709      0.00073157108894
| 23>   H          -1.92908575762545     -2.16481426353422      0.00013702687416
| 24>   H          -3.99412983383110      0.86546460627229     -0.00304008887547
| 25>   H          -3.99414263074980     -0.86544501134161     -0.00326996575689
| 26> *
| 27>
| 28>                          ****END OF INPUT****

CARTESIAN COORDINATES (ANGSTROEM)
---------------------------------
  O      2.721060    1.083238   -0.000151
  O      2.721079   -1.083242   -0.000412
  N      2.150373   -0.000022   -0.000159
  N     -3.474538    0.000006    0.001285
  C      0.690529   -0.000002    0.000089
  C     -2.110381   -0.000000    0.000440
  C      0.000335    1.216200    0.000338
  C      0.000336   -1.216203    0.000006
  C     -1.385846    1.216361    0.000505
  C     -1.385847   -1.216360    0.000173
  H      0.569114    2.145581    0.000355
  H      0.569122   -2.145581   -0.000227
  H     -1.929079    2.164818    0.000732
  H     -1.929086   -2.164814    0.000137
  H     -3.994130    0.865465   -0.003040
  H     -3.994143   -0.865445   -0.003270

 Total Charge           Charge          ....    0
 Multiplicity           Mult            ....    1
 Number of Electrons    NEL             ....   72
 Basis Dimension        Dim             ....  170

ORBITAL ENERGIES
----------------

  NO   OCC          E(Eh)            E(eV)
   0   2.0000     -19.140248      -520.8326
   1   2.0000     -19.140199      -520.8313
   2   2.0000     -14.539052      -395.6277
   3   2.0000     -14.364334      -390.8734
   4   2.0000     -10.257572      -279.1227
   5   2.0000     -10.226510      -278.2775
   6   2.0000     -10.209666      -277.8191
   7   2.0000     -10.209645      -277.8186
   8   2.0000     -10.202707      -277.6298
   9   2.0000     -10.202698      -277.6295
  10   2.0000      -1.200312       -32.6621
  11   2.0000      -1.025525       -27.9059
  12   2.0000      -0.939351       -25.5610
  13   2.0000      -0.862630       -23.4733
  14   2.0000      -0.777342       -21.1526
  15   2.0000      -0.758963       -20.6524
  16   2.0000      -0.678806       -18.4713
  17   2.0000      -0.633147       -17.2288
  18   2.0000      -0.587666       -15.9912
  19   2.0000      -0.551416       -15.0048
  20   2.0000      -0.545250       -14.8370
  21   2.0000      -0.525800       -14.3077
  22   2.0000      -0.520950       -14.1758
  23   2.0000      -0.488683       -13.2977
  24   2.0000      -0.456443       -12.4204
  25   2.0000      -0.452390       -12.3102
  26   2.0000      -0.440059       -11.9746
  27   2.0000      -0.418161       -11.3788
  28   2.0000      -0.409122       -11.1328
  29   2.0000      -0.363192        -9.8830
  30   2.0000      -0.337077        -9.1723
  31   2.0000      -0.293583        -7.9888
  32   2.0000      -0.292136        -7.9494
  33   2.0000      -0.274087        -7.4583
  34   2.0000      -0.273958        -7.4548
  35   2.0000      -0.226854        -6.1730
  36   0.0000      -0.068526        -1.8647
  37   0.0000      -0.023450        -0.6381
  38   0.0000       0.021666         0.5896
  39   0.0000       0.033355         0.9076
  40   0.0000       0.068675         1.8687

MULLIKEN ATOMIC CHARGES
-----------------------
   0 O :   -0.258840
   1 O :   -0.258836
   2 N :    0.235942
   3 N :   -0.054833
   4 C :    0.161760
   5 C :    0.105414
   6 C :   -0.018784
   7 C :   -0.018793
   8 C :   -0.033023
   9 C :   -0.033022
  10 H :    0.002938
  11 H :    0.002938
  12 H :   -0.032978
  13 H :   -0.032978
  14 H :    0.116547
  15 H :    0.116548
Sum of atomic charges:    0.0000000

LOEWDIN ATOMIC CHARGES
----------------------
   0 O :   -0.223854
   1 O :   -0.223846
   2 N :    0.276890
   3 N :    0.003032
   4 C :   -0.062409
   5 C :    0.047780
   6 C :    0.009818
   7 C :    0.009814
   8 C :   -0.064207
   9 C :   -0.064209
  10 H :    0.040649
  11 H :    0.040648
  12 H :    0.026067
  13 H :    0.026067
  14 H :    0.078881
  15 H :    0.078881

  Mayer bond orders larger than 0.100000
B(  0-O ,  1-O ) :   0.2646 B(  0-O ,  2-N ) :   1.5315 B(  1-O ,  2-N ) :   1.5315
B(  2-N ,  4-C ) :   0.8903 B(  3-N ,  5-C ) :   1.2931 B(  3-N , 14-H ) :   0.9460
B(  3-N , 15-H ) :   0.9460 B(  4-C ,  6-C ) :   1.3432 B(  4-C ,  7-C ) :   1.3432
B(  5-C ,  8-C ) :   1.2735 B(  5-C ,  9-C ) :   1.2735 B(  6-C ,  8-C ) :   1.3952
B(  6-C , 10-H ) :   0.9810 B(  7-C ,  9-C ) :   1.3952 B(  7-C , 11-H ) :   0.9810
B(  8-C , 12-H ) :   0.9874 B(  9-C , 13-H ) :   0.9874

FINAL SINGLE POINT ENERGY      -491.487319676060

DIPOLE MOMENT
-------------

Method             : SCF
Type of density    : Electron Density
Multiplicity       :   1
Irrep              :   0
Energy             :  -491.4873196760599967 Eh
Relativity type    :
Basis              : AO
                                X                 Y                 Z
Electronic contribution:      7.310855064      -0.000022753       0.001137436
Nuclear contribution   :    -10.276355408       0.000035220      -0.005809502
                        -----------------------------------------
Total Dipole Moment    :     -2.965500344       0.000012467      -0.004672066
                        -----------------------------------------
Magnitude (a.u.)       :      2.965504025
Magnitude (Debye)      :      7.537712199

Rotational constants in cm-1:             0.130823             0.027363             0.022630
Rotational constants in MHz :          3921.967171           820.332888           678.430071

                             ****ORCA TERMINATED NORMALLY****
TOTAL RUN TIME: 0 days 0 hours 0 minutes 12 seconds 717 msec
