                         Program Version 6.0.1  -  RELEASE   -
|  1> ! B3LYP def2-SVP SP TightSCF ALLPOP KEEPDENS NBO ChelpG
|  2>
|  3> %maxcore 5000
|  4>
|  5> %pal
|  6> nprocs 20
|  7> end
|  8>
|  9> * xyz 0 1
| 10>   N           3.23655236113662     -0.00008116967729      0.00037702054200
| 11>   N          -3.55678562134386      0.00011125254860     -0.00013352374286
| 12>   C           1.87005649136252     -0.00004657154740      0.00012351139967
| 13>   C           1.14338320133126     -1.21278736505736      0.00009997082512
| 14>   C           1.14344533089269      1.21273138982742      0.00007766818565
| 15>   C          -0.96365858559919      0.00002494456715     -0.00000063504473
| 16>   C          -0.24342305285815     -1.21076675992900      0.00004065618982
| 17>   C          -0.24336060686978      1.21078150597486      0.00002251731249
| 18>   C          -2.39428142401512      0.00006588854376     -0.00007380863744
| 19>   H           1.68405869858839     -2.16285895134487      0.00014075138258
| 20>   H           1.68417007126403      2.16277548506582      0.00010178647620
| 21>   H          -0.78683101528983     -2.15770780238853      0.00001580329737
| 22>   H          -0.78672547498727      2.15774700620916     -0.00001662108415
| 23>   H           3.75542186318903      0.86556992910989     -0.00094530208954
| 24>   H           3.75537776319864     -0.86575878190220     -0.00092979501218
| 25> *
| 26>
| 27>                          ****END OF INPUT****

CARTESIAN COORDINATES (ANGSTROEM)
---------------------------------
  N      3.236552   -0.000081    0.000377
  N     -3.556786    0.000111   -0.000134
  C      1.870056   -0.000047    0.000124
  C      1.143383   -1.212787    0.000100
  C      1.143445    1.212731    0.000078
  C     -0.963659    0.000025   -0.000001
  C     -0.243423   -1.210767    0.000041
  C     -0.243361    1.210782    0.000023
  C     -2.394281    0.000066   -0.000074
  H      1.684059   -2.162859    0.000141
  H      1.684170    2.162775    0.000102
  H     -0.786831   -2.157708    0.000016
  H     -0.786725    2.157747   -0.000017
  H      3.755422    0.865570   -0.000945
  H      3.755378   -0.865759   -0.000930

 Total Charge           Charge          ....    0
 Multiplicity           Mult            ....    1
 Number of Electrons    NEL             ....   62
 Basis Dimension        Dim             ....  156

ORBITAL ENERGIES
----------------

  NO   OCC          E(Eh)            E(eV)
   0   2.0000     -14.358751      -390.7215
   1   2.0000     -14.306695      -389.3050
   2   2.0000     -10.251903      -278.9685
   3   2.0000     -10.215029      -277.9651
   4   2.0000     -10.208912      -277.7986
   5   2.0000     -10.208885      -277.7979
   6   2.0000     -10.208775      -277.7949
   7   2.0000     -10.198423      -277.5132
   8   2.0000     -10.198420      -277.5131
   9   2.0000      -0.933635       -25.4055
  10   2.0000      -0.880054       -23.9475
  11   2.0000      -0.847173       -23.0527
  12   2.0000      -0.754668       -20.5356
  13   2.0000      -0.750884       -20.4326
  14   2.0000      -0.638183       -17.3658
  15   2.0000      -0.628885       -17.1128
  16   2.0000      -0.553566       -15.0633
  17   2.0000      -0.540224       -14.7002
  18   2.0000      -0.533784       -14.5250
  19   2.0000      -0.457596       -12.4518
  20   2.0000      -0.450794       -12.2667
  21   2.0000      -0.435532       -11.8514
  22   2.0000      -0.409464       -11.1421
  23   2.0000      -0.405828       -11.0431
  24   2.0000      -0.364583        -9.9208
  25   2.0000      -0.363992        -9.9047
  26   2.0000      -0.340726        -9.2716
  27   2.0000      -0.317718        -8.6456
  28   2.0000      -0.307288        -8.3617
  29   2.0000      -0.271253        -7.3812
  30   2.0000      -0.217418        -5.9162
  31   0.0000      -0.028959        -0.7880
  32   0.0000      -0.020509        -0.5581
  33   0.0000       0.036676         0.9980
  34   0.0000       0.049817         1.3556
  35   0.0000       0.064380         1.7519

MULLIKEN ATOMIC CHARGES
-----------------------
   0 N :   -0.061949
   1 N :    0.039706
   2 C :    0.096297
   3 C :   -0.032472
   4 C :   -0.032471
   5 C :   -0.101996
   6 C :    0.040832
   7 C :    0.040833
   8 C :   -0.123782
   9 H :   -0.036297
  10 H :   -0.036297
  11 H :   -0.011123
  12 H :   -0.011122
  13 H :    0.114921
  14 H :    0.114921
Sum of atomic charges:    0.0000000

LOEWDIN ATOMIC CHARGES
----------------------
   0 N :   -0.003423
   1 N :   -0.087927
   2 C :    0.043348
   3 C :   -0.066312
   4 C :   -0.066312
   5 C :   -0.104642
   6 C :    0.018362
   7 C :    0.018362
   8 C :   -0.031501
   9 H :    0.025255
  10 H :    0.025255
  11 H :    0.037458
  12 H :    0.037458
  13 H :    0.077309
  14 H :    0.077309

  Mayer bond orders larger than 0.100000
B(  0-N ,  2-C ) :   1.2778 B(  0-N , 13-H ) :   0.9474 B(  0-N , 14-H ) :   0.9474
B(  1-N ,  8-C ) :   3.0011 B(  2-C ,  3-C ) :   1.2873 B(  2-C ,  4-C ) :   1.2873
B(  3-C ,  6-C ) :   1.4152 B(  3-C ,  9-H ) :   0.9856 B(  4-C ,  7-C ) :   1.4152
B(  4-C , 10-H ) :   0.9856 B(  5-C ,  6-C ) :   1.3477 B(  5-C ,  7-C ) :   1.3477
B(  5-C ,  8-C ) :   1.0829 B(  6-C , 11-H ) :   0.9844 B(  7-C , 12-H ) :   0.9844

FINAL SINGLE POINT ENERGY      -379.348932199551

DIPOLE MOMENT
-------------

Method             : SCF
Type of density    : Electron Density
Multiplicity       :   1
Irrep              :   0
Energy             :  -379.3489321995513706 Eh
Relativity type    :
Basis              : AO
                                X                 Y                 Z
Electronic contribution:     -5.448421861       0.000145448       0.000390302
Nuclear contribution   :      8.315748406      -0.000229175      -0.001781503
                        -----------------------------------------
Total Dipole Moment    :      2.867326544      -0.000083727      -0.001391201
                        -----------------------------------------
Magnitude (a.u.)       :      2.867326883
Magnitude (Debye)      :      7.288165737

Rotational constants in cm-1:             0.185506             0.032827             0.027891
Rotational constants in MHz :          5561.318273           984.124696           836.158949

                             ****ORCA TERMINATED NORMALLY****
TOTAL RUN TIME: 0 days 0 hours 0 minutes 8 seconds 759 msec
