                         Program Version 6.0.1  -  RELEASE   -
|  1> ! B3LYP def2-SVP SP TightSCF ALLPOP KEEPDENS NBO ChelpG
|  2>
|  3> %maxcore 5000
|  4>
|  5> %pal
|  6> nprocs 20
|  7> end
|  8>
|  9> * xyz 0 1
| 10>   N          -2.82676513893344      0.00006675963327     -0.01212579035329
| 11>   C           1.40576799428083     -0.00000322602912      0.01750863040617
| 12>   C          -1.45074580064305      0.00001552079318     -0.00336551744234
| 13>   C           0.67239946329423     -1.19561437669654      0.01519029985596
| 14>   C           0.67239541289611      1.19566676231243      0.01453508938872
| 15>   C          -0.72094831050918     -1.20573996146725      0.00432664568846
| 16>   C          -0.72090292161669      1.20579924606346      0.00366995373631
| 17>   C           2.91412250319734      0.00015087697169     -0.00748859753188
| 18>   H           1.20597205051403     -2.15109088442194      0.02403228251878
| 19>   H           1.20597099047902      2.15115203441828      0.02285759800009
| 20>   H          -1.25787694853262     -2.15893223270910      0.00631887856199
| 21>   H          -1.25783644882912      2.15899195964781      0.00514312814432
| 22>   H           3.32644166992439      0.88763135506127      0.49823862034237
| 23>   H           3.32633197093728     -0.89259603127737      0.48889686119733
| 24>   H           3.30438606055253      0.00563162198260     -1.04142789954108
| 25>   H          -3.34392254286109      0.86565400082816     -0.01714269527779
| 26>   H          -3.34399000415058     -0.86548342511084     -0.01666748769412
| 27> *
| 28>
| 29>                          ****END OF INPUT****

CARTESIAN COORDINATES (ANGSTROEM)
---------------------------------
  N     -2.826765    0.000067   -0.012126
  C      1.405768   -0.000003    0.017509
  C     -1.450746    0.000016   -0.003366
  C      0.672399   -1.195614    0.015190
  C      0.672395    1.195667    0.014535
  C     -0.720948   -1.205740    0.004327
  C     -0.720903    1.205799    0.003670
  C      2.914123    0.000151   -0.007489
  H      1.205972   -2.151091    0.024032
  H      1.205971    2.151152    0.022858
  H     -1.257877   -2.158932    0.006319
  H     -1.257836    2.158992    0.005143
  H      3.326442    0.887631    0.498239
  H      3.326332   -0.892596    0.488897
  H      3.304386    0.005632   -1.041428
  H     -3.343923    0.865654   -0.017143
  H     -3.343990   -0.865483   -0.016667

 Total Charge           Charge          ....    0
 Multiplicity           Mult            ....    1
 Number of Electrons    NEL             ....   58
 Basis Dimension        Dim             ....  157

ORBITAL ENERGIES
----------------

  NO   OCC          E(Eh)            E(eV)
   0   2.0000     -14.327629      -389.8746
   1   2.0000     -10.217615      -278.0354
   2   2.0000     -10.172871      -276.8179
   3   2.0000     -10.172433      -276.8060
   4   2.0000     -10.172417      -276.8055
   5   2.0000     -10.169352      -276.7221
   6   2.0000     -10.169329      -276.7215
   7   2.0000     -10.169123      -276.7159
   8   2.0000      -0.901043       -24.5186
   9   2.0000      -0.819737       -22.3062
  10   2.0000      -0.735519       -20.0145
  11   2.0000      -0.721549       -19.6344
  12   2.0000      -0.656282       -17.8583
  13   2.0000      -0.597785       -16.2666
  14   2.0000      -0.569306       -15.4916
  15   2.0000      -0.513349       -13.9689
  16   2.0000      -0.511304       -13.9133
  17   2.0000      -0.448494       -12.2041
  18   2.0000      -0.432825       -11.7778
  19   2.0000      -0.414938       -11.2910
  20   2.0000      -0.404029       -10.9942
  21   2.0000      -0.403456       -10.9786
  22   2.0000      -0.368606       -10.0303
  23   2.0000      -0.368552       -10.0288
  24   2.0000      -0.343850        -9.3566
  25   2.0000      -0.324821        -8.8388
  26   2.0000      -0.292409        -7.9569
  27   2.0000      -0.239868        -6.5271
  28   2.0000      -0.185953        -5.0600
  29   0.0000       0.006462         0.1758
  30   0.0000       0.026919         0.7325
  31   0.0000       0.057370         1.5611
  32   0.0000       0.076818         2.0903
  33   0.0000       0.089425         2.4334

MULLIKEN ATOMIC CHARGES
-----------------------
   0 N :   -0.082575
   1 C :   -0.039589
   2 C :    0.092374
   3 C :   -0.017876
   4 C :   -0.017877
   5 C :   -0.033380
   6 C :   -0.033368
   7 C :    0.082045
   8 H :   -0.040874
   9 H :   -0.040883
  10 H :   -0.054445
  11 H :   -0.054421
  12 H :    0.005661
  13 H :    0.005421
  14 H :    0.021194
  15 H :    0.104295
  16 H :    0.104297
Sum of atomic charges:    0.0000000

LOEWDIN ATOMIC CHARGES
----------------------
   0 N :   -0.026548
   1 C :   -0.063523
   2 C :    0.025375
   3 C :   -0.020747
   4 C :   -0.020697
   5 C :   -0.072888
   6 C :   -0.072829
   7 C :   -0.046646
   8 H :    0.021321
   9 H :    0.021327
  10 H :    0.017293
  11 H :    0.017295
  12 H :    0.025789
  13 H :    0.025735
  14 H :    0.029782
  15 H :    0.069979
  16 H :    0.069981

  Mayer bond orders larger than 0.100000
B(  0-N ,  2-C ) :   1.2347 B(  0-N , 15-H ) :   0.9509 B(  0-N , 16-H ) :   0.9509
B(  1-C ,  3-C ) :   1.3784 B(  1-C ,  4-C ) :   1.3780 B(  1-C ,  7-C ) :   1.0652
B(  2-C ,  5-C ) :   1.3159 B(  2-C ,  6-C ) :   1.3157 B(  3-C ,  5-C ) :   1.3930
B(  3-C ,  8-H ) :   0.9798 B(  4-C ,  6-C ) :   1.3934 B(  4-C ,  9-H ) :   0.9799
B(  5-C , 10-H ) :   0.9835 B(  6-C , 11-H ) :   0.9835 B(  7-C , 12-H ) :   0.9582
B(  7-C , 13-H ) :   0.9582 B(  7-C , 14-H ) :   0.9532

FINAL SINGLE POINT ENERGY      -326.475817322777

DIPOLE MOMENT
-------------

Method             : SCF
Type of density    : Electron Density
Multiplicity       :   1
Irrep              :   0
Energy             :  -326.4758173227770612 Eh
Relativity type    :
Basis              : AO
                                X                 Y                 Z
Electronic contribution:     -3.934940150      -0.000078007       0.030429242
Nuclear contribution   :      3.199282414       0.000489321      -0.054248280
                        -----------------------------------------
Total Dipole Moment    :     -0.735657736       0.000411314      -0.023819037
                        -----------------------------------------
Magnitude (a.u.)       :      0.736043355
Magnitude (Debye)      :      1.870873527

Rotational constants in cm-1:             0.181862             0.048197             0.038376
Rotational constants in MHz :          5452.074712          1444.895170          1150.492300

                             ****ORCA TERMINATED NORMALLY****
TOTAL RUN TIME: 0 days 0 hours 0 minutes 8 seconds 293 msec
