                         Program Version 6.0.1  -  RELEASE   -
|  1> ! wB97X-D3 def2-TZVPP TightSCF RIJCOSX SP
|  2>
|  3> %pal
|  4> nprocs 28
|  5> end
|  6>
|  7> %maxcore 3500
|  8>
|  9>
| 10> * xyz -1 2
| 11>   O           0.23249747250981      1.89811844501955     -1.92388976332606
| 12>   O          -4.11921229071187     -1.44782152929071      1.19225290556566
| 13>   C           1.05390265158646      0.41678913099122     -0.24521481318289
| 14>   C          -0.30343265336730     -0.04847664579520      0.14371780497964
| 15>   C          -2.61672726045460     -0.62581672484244     -0.45321549162166
| 16>   C          -1.34749487044041     -0.16066871744701     -0.79219903904680
| 17>   C           3.48296951168554      0.30194311240709      0.13474281657556
| 18>   C           2.17585530957586     -0.10657242868259      0.40690798163722
| 19>   C           1.22954443687610      1.41027861035309     -1.27432568689071
| 20>   C          -0.59797832526058     -0.41194729436668      1.46458165258213
| 21>   C          -2.87042427393015     -0.99178132183739      0.87646677433692
| 22>   C          -3.73113726723083     -0.68935803160561     -1.47534438054417
| 23>   C           4.66161590547624     -0.31747901020817      0.85985031129720
| 24>   C           3.65023688273431      1.28628001765270     -0.85005876628729
| 25>   C          -1.85863143076536     -0.88424201100922      1.82779452532291
| 26>   C           2.57072469772536      1.82445129321708     -1.52969773977799
| 27>   C          -4.60065311647690      0.53964666828608     -1.42991327965241
| 28>   C           4.82118530350519     -1.78550266321859      0.57531948882351
| 29>   C          -5.89776333362006      0.55392956624520     -1.12460136729104
| 30>   C           4.83393958102357     -2.75774176057325      1.48857045225201
| 31>   H          -1.14520610300088      0.15584181084934     -1.81657151362634
| 32>   H           2.02331474372976     -0.89603363686249      1.15281784147784
| 33>   H           0.16984035097667     -0.30691893750423      2.23561557323586
| 34>   H          -3.28039272667595     -0.77082014075299     -2.47790873930900
| 35>   H          -4.34909774338905     -1.58567772553274     -1.31104685852887
| 36>   H           5.58124580884116      0.20514676932530      0.54226455932975
| 37>   H           4.58222886507423     -0.17005291505949      1.95205265019235
| 38>   H           4.66134046864604      1.63535607028994     -1.09469948315243
| 39>   H          -2.06377353925715     -1.15792296329137      2.86955866529498
| 40>   H           2.70796155442403      2.58972166408747     -2.30079428281441
| 41>   H          -4.08542181242033      1.48405305215390     -1.64775361080742
| 42>   H           4.90566007569239     -2.04893266897802     -0.48722216992818
| 43>   H           0.39045506902551      2.87375512963272     -2.90104612882464
| 44>   H          -4.14442215886424     -1.62684138356280      2.13590621443360
| 45>   H          -6.46820317758744      1.48696310984548     -1.09723471682333
| 46>   H          -6.43236314418918     -0.36891732912388     -0.87539556732407
| 47>   H           4.93526733615335     -3.80993789718210      1.20720452504443
| 48>   H           4.72965443254655     -2.53567614208315      2.55656377050862
| 49>   O           1.62784950455437      3.97554897357793     -3.88741281844717
| 50>   O           0.39611126527968      3.62128445487605     -3.67878129568326
| 51> *
| 52>
| 53>                          ****END OF INPUT****

CARTESIAN COORDINATES (ANGSTROEM)
---------------------------------
  O      0.232497    1.898118   -1.923890
  O     -4.119212   -1.447822    1.192253
  C      1.053903    0.416789   -0.245215
  C     -0.303433   -0.048477    0.143718
  C     -2.616727   -0.625817   -0.453215
  C     -1.347495   -0.160669   -0.792199
  C      3.482970    0.301943    0.134743
  C      2.175855   -0.106572    0.406908
  C      1.229544    1.410279   -1.274326
  C     -0.597978   -0.411947    1.464582
  C     -2.870424   -0.991781    0.876467
  C     -3.731137   -0.689358   -1.475344
  C      4.661616   -0.317479    0.859850
  C      3.650237    1.286280   -0.850059
  C     -1.858631   -0.884242    1.827795
  C      2.570725    1.824451   -1.529698
  C     -4.600653    0.539647   -1.429913
  C      4.821185   -1.785503    0.575319
  C     -5.897763    0.553930   -1.124601
  C      4.833940   -2.757742    1.488570
  H     -1.145206    0.155842   -1.816572
  H      2.023315   -0.896034    1.152818
  H      0.169840   -0.306919    2.235616
  H     -3.280393   -0.770820   -2.477909
  H     -4.349098   -1.585678   -1.311047
  H      5.581246    0.205147    0.542265
  H      4.582229   -0.170053    1.952053
  H      4.661340    1.635356   -1.094699
  H     -2.063774   -1.157923    2.869559
  H      2.707962    2.589722   -2.300794
  H     -4.085422    1.484053   -1.647754
  H      4.905660   -2.048933   -0.487222
  H      0.390455    2.873755   -2.901046
  H     -4.144422   -1.626841    2.135906
  H     -6.468203    1.486963   -1.097235
  H     -6.432363   -0.368917   -0.875396
  H      4.935267   -3.809938    1.207205
  H      4.729654   -2.535676    2.556564
  O      1.627850    3.975549   -3.887413
  O      0.396111    3.621284   -3.678781

 Total Charge           Charge          ....   -1
 Multiplicity           Mult            ....    2
 Number of Electrons    NEL             ....  159
 Basis Dimension        Dim             ....  934

ORBITAL ENERGIES
----------------
                 SPIN UP ORBITALS
  NO   OCC          E(Eh)            E(eV)
   0   1.0000     -19.172373      -521.7068
   1   1.0000     -19.149763      -521.0915
   2   1.0000     -19.128246      -520.5060
   3   1.0000     -19.038383      -518.0607
   4   1.0000     -10.238227      -278.5963
   5   1.0000     -10.194568      -277.4083
   6   1.0000     -10.194142      -277.3967
   7   1.0000     -10.193380      -277.3760
   8   1.0000     -10.189578      -277.2725
   9   1.0000     -10.182873      -277.0901
  10   1.0000     -10.182412      -277.0775
  11   1.0000     -10.182186      -277.0714
  12   1.0000     -10.181799      -277.0608
  13   1.0000     -10.180765      -277.0327
  14   1.0000     -10.175521      -276.8900
  15   1.0000     -10.172810      -276.8162
  16   1.0000     -10.164402      -276.5875
  17   1.0000     -10.152096      -276.2526
  18   1.0000     -10.151621      -276.2396
  19   1.0000     -10.149959      -276.1944
  20   1.0000     -10.146563      -276.1020
  21   1.0000     -10.125956      -275.5413
  22   1.0000      -1.134112       -30.8608
  23   1.0000      -1.089854       -29.6564
  24   1.0000      -0.970197       -26.4004
  25   1.0000      -0.872437       -23.7402
  26   1.0000      -0.843349       -22.9487
  27   1.0000      -0.824873       -22.4459
  28   1.0000      -0.806816       -21.9546
  29   1.0000      -0.778052       -21.1719
  30   1.0000      -0.771946       -21.0057
  31   1.0000      -0.763389       -20.7729
  32   1.0000      -0.730000       -19.8643
  33   1.0000      -0.713745       -19.4220
  34   1.0000      -0.694583       -18.9006
  35   1.0000      -0.662349       -18.0234
  36   1.0000      -0.634165       -17.2565
  37   1.0000      -0.608707       -16.5638
  38   1.0000      -0.576874       -15.6975
  39   1.0000      -0.572667       -15.5831
  40   1.0000      -0.560274       -15.2458
  41   1.0000      -0.551804       -15.0154
  42   1.0000      -0.542568       -14.7640
  43   1.0000      -0.496028       -13.4976
  44   1.0000      -0.493920       -13.4402
  45   1.0000      -0.483122       -13.1464
  46   1.0000      -0.471694       -12.8355
  47   1.0000      -0.463850       -12.6220
  48   1.0000      -0.444801       -12.1037
  49   1.0000      -0.443957       -12.0807
  50   1.0000      -0.436088       -11.8665
  51   1.0000      -0.435520       -11.8511
  52   1.0000      -0.423226       -11.5166
  53   1.0000      -0.418284       -11.3821
  54   1.0000      -0.415618       -11.3095
  55   1.0000      -0.410361       -11.1665
  56   1.0000      -0.404407       -11.0045
  57   1.0000      -0.402763       -10.9597
  58   1.0000      -0.387229       -10.5370
  59   1.0000      -0.381099       -10.3702
  60   1.0000      -0.376509       -10.2453
  61   1.0000      -0.366031        -9.9602
  62   1.0000      -0.362208        -9.8562
  63   1.0000      -0.354910        -9.6576
  64   1.0000      -0.349697        -9.5158
  65   1.0000      -0.348389        -9.4802
  66   1.0000      -0.330364        -8.9897
  67   1.0000      -0.328603        -8.9417
  68   1.0000      -0.317038        -8.6270
  69   1.0000      -0.306394        -8.3374
  70   1.0000      -0.281627        -7.6635
  71   1.0000      -0.263171        -7.1613
  72   1.0000      -0.260772        -7.0960
  73   1.0000      -0.234826        -6.3899
  74   1.0000      -0.230073        -6.2606
  75   1.0000      -0.224002        -6.0954
  76   1.0000      -0.212221        -5.7748
  77   1.0000      -0.184029        -5.0077
  78   1.0000      -0.181547        -4.9402
  79   1.0000      -0.133091        -3.6216
  80   0.0000       0.157289         4.2801
  81   0.0000       0.161532         4.3955
  82   0.0000       0.176447         4.8014
  83   0.0000       0.185797         5.0558
  84   0.0000       0.190229         5.1764

                 SPIN DOWN ORBITALS
  NO   OCC          E(Eh)            E(eV)
   0   1.0000     -19.172373      -521.7068
   1   1.0000     -19.140622      -520.8428
   2   1.0000     -19.113423      -520.1027
   3   1.0000     -19.038444      -518.0624
   4   1.0000     -10.238226      -278.5963
   5   1.0000     -10.194569      -277.4083
   6   1.0000     -10.194142      -277.3967
   7   1.0000     -10.193390      -277.3762
   8   1.0000     -10.189578      -277.2725
   9   1.0000     -10.182874      -277.0901
  10   1.0000     -10.182412      -277.0775
  11   1.0000     -10.182186      -277.0714
  12   1.0000     -10.181800      -277.0609
  13   1.0000     -10.180767      -277.0327
  14   1.0000     -10.175519      -276.8900
  15   1.0000     -10.172812      -276.8163
  16   1.0000     -10.164401      -276.5874
  17   1.0000     -10.152101      -276.2527
  18   1.0000     -10.151624      -276.2397
  19   1.0000     -10.149951      -276.1942
  20   1.0000     -10.146556      -276.1018
  21   1.0000     -10.125970      -275.5417
  22   1.0000      -1.104236       -30.0478
  23   1.0000      -1.089852       -29.6564
  24   1.0000      -0.970029       -26.3958
  25   1.0000      -0.872428       -23.7400
  26   1.0000      -0.843303       -22.9474
  27   1.0000      -0.824868       -22.4458
  28   1.0000      -0.806624       -21.9494
  29   1.0000      -0.772070       -21.0091
  30   1.0000      -0.763624       -20.7793
  31   1.0000      -0.737434       -20.0666
  32   1.0000      -0.727670       -19.8009
  33   1.0000      -0.713747       -19.4220
  34   1.0000      -0.694571       -18.9002
  35   1.0000      -0.662016       -18.0144
  36   1.0000      -0.634122       -17.2553
  37   1.0000      -0.608705       -16.5637
  38   1.0000      -0.576757       -15.6944
  39   1.0000      -0.572626       -15.5819
  40   1.0000      -0.560052       -15.2398
  41   1.0000      -0.551592       -15.0096
  42   1.0000      -0.542540       -14.7633
  43   1.0000      -0.495834       -13.4923
  44   1.0000      -0.485013       -13.1979
  45   1.0000      -0.483105       -13.1459
  46   1.0000      -0.471022       -12.8172
  47   1.0000      -0.463788       -12.6203
  48   1.0000      -0.444601       -12.0982
  49   1.0000      -0.441967       -12.0265
  50   1.0000      -0.435991       -11.8639
  51   1.0000      -0.435359       -11.8467
  52   1.0000      -0.417829       -11.3697
  53   1.0000      -0.415361       -11.3025
  54   1.0000      -0.408665       -11.1203
  55   1.0000      -0.402789       -10.9604
  56   1.0000      -0.389784       -10.6066
  57   1.0000      -0.385577       -10.4921
  58   1.0000      -0.380104       -10.3432
  59   1.0000      -0.376302       -10.2397
  60   1.0000      -0.365644        -9.9497
  61   1.0000      -0.362436        -9.8624
  62   1.0000      -0.354824        -9.6553
  63   1.0000      -0.349608        -9.5133
  64   1.0000      -0.348841        -9.4924
  65   1.0000      -0.334660        -9.1066
  66   1.0000      -0.329005        -8.9527
  67   1.0000      -0.327890        -8.9223
  68   1.0000      -0.316583        -8.6147
  69   1.0000      -0.306269        -8.3340
  70   1.0000      -0.280981        -7.6459
  71   1.0000      -0.263166        -7.1611
  72   1.0000      -0.260688        -7.0937
  73   1.0000      -0.234618        -6.3843
  74   1.0000      -0.228648        -6.2218
  75   1.0000      -0.218710        -5.9514
  76   1.0000      -0.183857        -5.0030
  77   1.0000      -0.169358        -4.6085
  78   1.0000      -0.133384        -3.6296
  79   0.0000       0.151154         4.1131
  80   0.0000       0.157480         4.2853
  81   0.0000       0.161938         4.4066
  82   0.0000       0.176456         4.8016
  83   0.0000       0.185799         5.0559

MULLIKEN ATOMIC CHARGES AND SPIN POPULATIONS
--------------------------------------------
   0 O :   -0.570666   -0.000937
   1 O :   -0.319844    0.000016
   2 C :    0.003624    0.000851
   3 C :    0.081654   -0.000324
   4 C :   -0.052398   -0.000200
   5 C :   -0.081570    0.000356
   6 C :   -0.031964    0.000783
   7 C :   -0.163523   -0.000388
   8 C :    0.204352   -0.000611
   9 C :   -0.201406    0.000175
  10 C :    0.229191    0.000164
  11 C :   -0.087262   -0.000008
  12 C :   -0.106343   -0.000032
  13 C :   -0.112914    0.000028
  14 C :   -0.169352   -0.000110
  15 C :   -0.237511    0.000650
  16 C :   -0.130725    0.000006
  17 C :   -0.104274   -0.000009
  18 C :   -0.227375   -0.000002
  19 C :   -0.241941    0.000027
  20 H :    0.104578   -0.000071
  21 H :    0.079896   -0.000022
  22 H :    0.099308   -0.000018
  23 H :    0.085226   -0.000001
  24 H :    0.072028   -0.000002
  25 H :    0.067249   -0.000004
  26 H :    0.070300    0.000036
  27 H :    0.072302    0.000008
  28 H :    0.059498   -0.000000
  29 H :    0.117367   -0.003396
  30 H :    0.121394   -0.000005
  31 H :    0.101144    0.000006
  32 H :    0.251736   -0.004765
  33 H :    0.170101   -0.000000
  34 H :    0.087208    0.000000
  35 H :    0.069096    0.000000
  36 H :    0.084393    0.000000
  37 H :    0.066926   -0.000001
  38 O :   -0.282943    0.651669
  39 O :   -0.176560    0.356131
Sum of atomic charges         :   -1.0000000

LOEWDIN ATOMIC CHARGES AND SPIN POPULATIONS
-------------------------------------------
   0 O :    0.085795   -0.001435
   1 O :    0.330557    0.000021
   2 C :   -0.078821    0.000381
   3 C :   -0.061135   -0.000023
   4 C :   -0.084134   -0.000038
   5 C :    0.033048    0.000063
   6 C :   -0.129814    0.000509
   7 C :   -0.017693   -0.000140
   8 C :   -0.286404   -0.000489
   9 C :   -0.011963    0.000085
  10 C :   -0.199584    0.000081
  11 C :   -0.027764   -0.000005
  12 C :   -0.041842    0.000052
  13 C :   -0.048533   -0.000111
  14 C :   -0.061902   -0.000037
  15 C :   -0.042207   -0.000611
  16 C :   -0.023909   -0.000002
  17 C :   -0.029213    0.000020
  18 C :   -0.023178   -0.000001
  19 C :   -0.033441    0.000020
  20 H :    0.026057   -0.000011
  21 H :    0.021306   -0.000032
  22 H :    0.020604    0.000005
  23 H :    0.034573   -0.000000
  24 H :    0.029333   -0.000001
  25 H :    0.029315   -0.000001
  26 H :    0.026177    0.000019
  27 H :    0.012507   -0.000020
  28 H :    0.007327   -0.000004
  29 H :    0.006681   -0.001624
  30 H :    0.026256   -0.000001
  31 H :    0.020845    0.000002
  32 H :   -0.253045    0.012415
  33 H :   -0.121985    0.000002
  34 H :   -0.004164   -0.000000
  35 H :   -0.001874   -0.000000
  36 H :   -0.005745    0.000002
  37 H :   -0.004415    0.000002
  38 O :   -0.219992    0.638221
  39 O :    0.102379    0.352688

  Mayer bond orders larger than 0.100000
B(  0-O ,  8-C ) :   1.4551 B(  0-O , 32-H ) :   0.3532 B(  1-O , 10-C ) :   1.0804
B(  1-O , 33-H ) :   1.0198 B(  2-C ,  3-C ) :   0.8768 B(  2-C ,  7-C ) :   1.3999
B(  2-C ,  8-C ) :   1.2692 B(  3-C ,  5-C ) :   1.3802 B(  3-C ,  9-C ) :   1.4155
B(  4-C ,  5-C ) :   1.4508 B(  4-C , 10-C ) :   1.3571 B(  4-C , 11-C ) :   0.9257
B(  5-C , 20-H ) :   0.9412 B(  6-C ,  7-C ) :   1.4304 B(  6-C , 12-C ) :   0.9326
B(  6-C , 13-C ) :   1.3207 B(  7-C , 21-H ) :   0.9511 B(  8-C , 15-C ) :   1.3199
B(  9-C , 14-C ) :   1.4644 B(  9-C , 22-H ) :   0.9594 B( 10-C , 14-C ) :   1.3955
B( 11-C , 16-C ) :   0.9473 B( 11-C , 23-H ) :   1.0082 B( 11-C , 24-H ) :   1.0009
B( 12-C , 17-C ) :   0.9470 B( 12-C , 25-H ) :   0.9972 B( 12-C , 26-H ) :   1.0052
B( 13-C , 15-C ) :   1.5151 B( 13-C , 27-H ) :   0.9838 B( 14-C , 28-H ) :   0.9731
B( 15-C , 29-H ) :   0.9477 B( 16-C , 18-C ) :   1.9114 B( 16-C , 30-H ) :   0.9738
B( 17-C , 19-C ) :   1.8998 B( 17-C , 31-H ) :   0.9793 B( 18-C , 34-H ) :   0.9948
B( 18-C , 35-H ) :   0.9949 B( 19-C , 36-H ) :   0.9974 B( 19-C , 37-H ) :   0.9956
B( 32-H , 39-O ) :   0.7114 B( 38-O , 39-O ) :   1.2766

Dispersion correction           -0.017058878
FINAL SINGLE POINT ENERGY      -997.658642271438

DIPOLE MOMENT
-------------

Method             : SCF
Type of density    : Electron Density
Multiplicity       :   2
Irrep              :   0
Energy             :  -997.6415833934501052 Eh
Relativity type    :
Basis              : AO
                                X                 Y                 Z
Electronic contribution:     -2.131519808       7.043495847      -4.418335654
Nuclear contribution   :      0.883313389      -9.794827020       7.175039362
                        -----------------------------------------
Total Dipole Moment    :     -1.248206420      -2.751331173       2.756703707
                        -----------------------------------------
Magnitude (a.u.)       :      4.089897043
Magnitude (Debye)      :     10.395692123

Rotational constants in cm-1:             0.010479             0.005419             0.003722
Rotational constants in MHz :           314.158582           162.445282           111.583861

                             ****ORCA TERMINATED NORMALLY****
TOTAL RUN TIME: 0 days 0 hours 1 minutes 54 seconds 941 msec
