                         Program Version 6.0.1  -  RELEASE   -
|  1> ! B3LYP def2-SVP OPT TightSCF ALLPOP KEEPDENS D3BJ
|  2>
|  3> %pal
|  4> nprocs 4
|  5> end
|  6>
|  7> * xyz 0 1
|  8> N         -2.40460        0.00000        0.00050
|  9> C         -0.99410       -0.00020       -0.00030
| 10> C         -0.29690        1.20790       -0.00030
| 11> C         -0.29650       -1.20800       -0.00030
| 12> C          1.09800        1.20800        0.00010
| 13> C          1.09840       -1.20780        0.00010
| 14> C          1.79570        0.00020        0.00030
| 15> H         -0.82890        2.15580       -0.00030
| 16> H         -0.82830       -2.15610       -0.00020
| 17> H          1.64110        2.14860        0.00020
| 18> H          1.64170       -2.14820        0.00020
| 19> H          2.88180        0.00040        0.00060
| 20> H         -2.91090       -0.87550       -0.00050
| 21> H         -2.91070        0.87560       -0.00060
| 22> *
| 23>
| 24>                          ****END OF INPUT****
 Total Charge           Charge          ....    0
 Multiplicity           Mult            ....    1
 Number of Electrons    NEL             ....   50
Dispersion correction           -0.022772940
FINAL SINGLE POINT ENERGY      -287.238286983998
Dispersion correction             ... done (  0.0 sec)
Dispersion correction           -0.022754300
FINAL SINGLE POINT ENERGY      -287.239728479050
Dispersion correction             ... done (  0.0 sec)
Dispersion correction           -0.022746332
FINAL SINGLE POINT ENERGY      -287.240044236152
Dispersion correction             ... done (  0.0 sec)
Dispersion correction           -0.022742361
FINAL SINGLE POINT ENERGY      -287.240076836649
Dispersion correction             ... done (  0.1 sec)
Dispersion correction           -0.022741546
FINAL SINGLE POINT ENERGY      -287.240084017350
Dispersion correction             ... done (  0.0 sec)
                    ***********************HURRAY********************

CARTESIAN COORDINATES (ANGSTROEM)
---------------------------------
  N     -2.394773   -0.000147    0.002592
  C     -1.020061   -0.000029    0.001098
  C     -0.294516    1.210106    0.000709
  C     -0.294308   -1.210041    0.000735
  C      1.099200    1.202943    0.000069
  C      1.099407   -1.202638    0.000098
  C      1.812865    0.000213   -0.000241
  H     -0.836981    2.160081    0.001000
  H     -0.836606   -2.160111    0.001047
  H      1.635567    2.155896   -0.000226
  H      1.635934   -2.155501   -0.000174
  H      2.904783    0.000310   -0.000776
  H     -2.912283   -0.865702   -0.003202
  H     -2.912428    0.865321   -0.003228

 Multiplicity           Mult            ....    1
 Number of Electrons    NEL             ....   50
 Basis Dimension        Dim             ....  133

ORBITAL ENERGIES
----------------

  NO   OCC          E(Eh)            E(eV)
   0   2.0000     -14.330735      -389.9591
   1   2.0000     -10.221549      -278.1425
   2   2.0000     -10.176948      -276.9288
   3   2.0000     -10.176934      -276.9285
   4   2.0000     -10.171354      -276.7766
   5   2.0000     -10.171351      -276.7765
   6   2.0000     -10.165102      -276.6065
   7   2.0000      -0.904271       -24.6065
   8   2.0000      -0.816404       -22.2155
   9   2.0000      -0.723970       -19.7002
  10   2.0000      -0.706935       -19.2367
  11   2.0000      -0.597740       -16.2653
  12   2.0000      -0.587051       -15.9745
  13   2.0000      -0.517870       -14.0920
  14   2.0000      -0.510376       -13.8880
  15   2.0000      -0.467654       -12.7255
  16   2.0000      -0.421755       -11.4765
  17   2.0000      -0.421177       -11.4608
  18   2.0000      -0.406841       -11.0707
  19   2.0000      -0.376874       -10.2553
  20   2.0000      -0.349177        -9.5016
  21   2.0000      -0.331268        -9.0143
  22   2.0000      -0.303863        -8.2685
  23   2.0000      -0.242089        -6.5876
  24   2.0000      -0.192714        -5.2440
  25   0.0000       0.005659         0.1540
  26   0.0000       0.025153         0.6844
  27   0.0000       0.055216         1.5025
  28   0.0000       0.077207         2.1009
  29   0.0000       0.089474         2.4347

MULLIKEN ATOMIC CHARGES
-----------------------
   0 N :   -0.082718
   1 C :    0.086525
   2 C :   -0.035654
   3 C :   -0.035655
   4 C :    0.016074
   5 C :    0.016073
   6 C :    0.007039
   7 H :   -0.051737
   8 H :   -0.051736
   9 H :   -0.024788
  10 H :   -0.024787
  11 H :   -0.030029
  12 H :    0.105696
  13 H :    0.105696
Sum of atomic charges:    0.0000000

LOEWDIN ATOMIC CHARGES
----------------------
   0 N :   -0.023689
   1 C :    0.030279
   2 C :   -0.075529
   3 C :   -0.075529
   4 C :   -0.016535
   5 C :   -0.016535
   6 C :   -0.069012
   7 H :    0.017466
   8 H :    0.017466
   9 H :    0.024547
  10 H :    0.024547
  11 H :    0.021058
  12 H :    0.070733
  13 H :    0.070733

  Mayer bond orders larger than 0.100000
B(  0-N ,  1-C ) :   1.2388 B(  0-N , 12-H ) :   0.9509 B(  0-N , 13-H ) :   0.9509
B(  1-C ,  2-C ) :   1.3200 B(  1-C ,  3-C ) :   1.3200 B(  2-C ,  4-C ) :   1.4065
B(  2-C ,  7-H ) :   0.9835 B(  3-C ,  5-C ) :   1.4065 B(  3-C ,  8-H ) :   0.9835
B(  4-C ,  6-C ) :   1.3714 B(  4-C ,  9-H ) :   0.9783 B(  5-C ,  6-C ) :   1.3714
B(  5-C , 10-H ) :   0.9783 B(  6-C , 11-H ) :   0.9870

Dispersion correction           -0.022742092
FINAL SINGLE POINT ENERGY      -287.240084733927

DIPOLE MOMENT
-------------

Method             : SCF
Type of density    : Electron Density
Multiplicity       :   1
Irrep              :   0
Energy             :  -287.2173426415860717 Eh
Relativity type    :
Basis              : AO
                                X                 Y                 Z
Electronic contribution:     -0.016680509      -0.000001157       0.002915443
Nuclear contribution   :     -0.828688457      -0.000071003      -0.009457466
                        -----------------------------------------
Total Dipole Moment    :     -0.845368966      -0.000072160      -0.006542023
                        -----------------------------------------
Magnitude (a.u.)       :      0.845394282
Magnitude (Debye)      :      2.148821496

Rotational constants in cm-1:             0.186865             0.086257             0.059016
Rotational constants in MHz :          5602.067849          2585.928245          1769.242666

                             ****ORCA TERMINATED NORMALLY****
TOTAL RUN TIME: 0 days 0 hours 1 minutes 6 seconds 56 msec
