                         Program Version 6.0.1  -  RELEASE   -
|  1> ! B3LYP def2-SVP OPT TightSCF D3BJ
|  2>
|  3> %maxcore 3000
|  4>
|  5> %pal
|  6> nprocs 20
|  7> end
|  8>
|  9> * xyz 0 1
| 10>   N          -2.37588989997825      3.30055501377354      0.54477994267625
| 11>   C          -1.00628836566686      3.32142076594705      0.31022976403450
| 12>   C          -0.36098684037001      4.53238333126216     -0.02502714583417
| 13>   C          -0.21566504438871      2.16144792091425      0.42895293231482
| 14>   C           1.01416312453588      4.56720795363059     -0.25659783012012
| 15>   C           1.16220100142360      2.21040373551415      0.21126945677603
| 16>   C           1.78936815880938      3.40832535675197     -0.14234156454907
| 17>   H          -0.95040964541188      5.45244116795821     -0.06520895999454
| 18>   H          -0.69254839332101      1.21258333835806      0.69210707730513
| 19>   H           1.48919721096431      5.51780715090173     -0.51449896900542
| 20>   H           1.75094025982665      1.29429932880350      0.31085442363394
| 21>   H           2.86664598605009      3.44072282146539     -0.31859080200949
| 22>   H          -2.76592944523039      2.36971748162590      0.64194761794390
| 23>   H          -2.90152301895090      3.86167567862169     -0.12345793014353
| 24>   O          -2.63190156756296      4.45072191527742     -2.18410921259169
| 25>   H          -2.48936113449211      3.52413477088470     -2.42025002378307
| 26>   H          -1.72700238623682      4.77250226830955     -2.06236877665348
| 27> *
| 28>
| 29>                          ****END OF INPUT****
 Total Charge           Charge          ....    0
 Multiplicity           Mult            ....    1
 Number of Electrons    NEL             ....   60
Dispersion correction           -0.027189160
FINAL SINGLE POINT ENERGY      -363.576406476492
Dispersion correction             ... done (  0.0 sec)
Dispersion correction           -0.027119185
FINAL SINGLE POINT ENERGY      -363.576467982611
Dispersion correction             ... done (  0.0 sec)
Dispersion correction           -0.027049797
FINAL SINGLE POINT ENERGY      -363.576507902073
Dispersion correction             ... done (  0.0 sec)
FINAL SINGLE POINT ENERGY      -363.576540329211
FINAL SINGLE POINT ENERGY      -363.576572130178
FINAL SINGLE POINT ENERGY      -363.576615956115
FINAL SINGLE POINT ENERGY      -363.576659909896
FINAL SINGLE POINT ENERGY      -363.576689699838
FINAL SINGLE POINT ENERGY      -363.576707276949
FINAL SINGLE POINT ENERGY      -363.576718623319
FINAL SINGLE POINT ENERGY      -363.576728482411
FINAL SINGLE POINT ENERGY      -363.576735639575
FINAL SINGLE POINT ENERGY      -363.576739637386
FINAL SINGLE POINT ENERGY      -363.576741606313
FINAL SINGLE POINT ENERGY      -363.576743451342
FINAL SINGLE POINT ENERGY      -363.576745969668
FINAL SINGLE POINT ENERGY      -363.576748941297
Dispersion correction             ... done (  0.0 sec)
Dispersion correction           -0.026817852
FINAL SINGLE POINT ENERGY      -363.576752045843
Dispersion correction             ... done (  0.0 sec)
Dispersion correction           -0.026818216
FINAL SINGLE POINT ENERGY      -363.576754134981
Dispersion correction             ... done (  0.0 sec)
                    ***********************HURRAY********************

CARTESIAN COORDINATES (ANGSTROEM)
---------------------------------
  N     -2.342259    3.256331    0.480307
  C     -0.970060    3.284808    0.284252
  C     -0.327865    4.489851   -0.080427
  C     -0.167428    2.141915    0.476011
  C      1.053410    4.534125   -0.270424
  C      1.214301    2.200723    0.296163
  C      1.838897    3.391912   -0.087078
  H     -0.923154    5.403152   -0.169396
  H     -0.641303    1.199187    0.765425
  H      1.523235    5.480639   -0.551953
  H      1.810799    1.297469    0.451352
  H      2.920467    3.431123   -0.232354
  H     -2.746429    2.328860    0.554032
  H     -2.862818    3.857878   -0.158209
  O     -2.816771    4.566497   -2.165115
  H     -2.707099    3.674314   -2.524346
  H     -1.900914    4.859565   -2.040551

 Multiplicity           Mult            ....    1
 Number of Electrons    NEL             ....   60
 Basis Dimension        Dim             ....  157

ORBITAL ENERGIES
----------------

  NO   OCC          E(Eh)            E(eV)
   0   2.0000     -19.140831      -520.8485
   1   2.0000     -14.321688      -389.7129
   2   2.0000     -10.223025      -278.1826
   3   2.0000     -10.185585      -277.1639
   4   2.0000     -10.184793      -277.1423
   5   2.0000     -10.179133      -276.9883
   6   2.0000     -10.178520      -276.9716
   7   2.0000     -10.173986      -276.8482
   8   2.0000      -0.998727       -27.1768
   9   2.0000      -0.902443       -24.5567
  10   2.0000      -0.822437       -22.3796
  11   2.0000      -0.731500       -19.9051
  12   2.0000      -0.710555       -19.3352
  13   2.0000      -0.602076       -16.3833
  14   2.0000      -0.586879       -15.9698
  15   2.0000      -0.528909       -14.3923
  16   2.0000      -0.516491       -14.0544
  17   2.0000      -0.499503       -13.5922
  18   2.0000      -0.469470       -12.7749
  19   2.0000      -0.427944       -11.6449
  20   2.0000      -0.423961       -11.5366
  21   2.0000      -0.414086       -11.2679
  22   2.0000      -0.392167       -10.6714
  23   2.0000      -0.375675       -10.2226
  24   2.0000      -0.355950        -9.6859
  25   2.0000      -0.338699        -9.2165
  26   2.0000      -0.315382        -8.5820
  27   2.0000      -0.302802        -8.2397
  28   2.0000      -0.250573        -6.8184
  29   2.0000      -0.202220        -5.5027
  30   0.0000      -0.006269        -0.1706
  31   0.0000       0.012848         0.3496
  32   0.0000       0.042249         1.1496
  33   0.0000       0.069225         1.8837
  34   0.0000       0.076987         2.0949

MULLIKEN ATOMIC CHARGES
-----------------------
   0 N :   -0.080268
   1 C :    0.037312
   2 C :   -0.073133
   3 C :   -0.026142
   4 C :    0.017458
   5 C :    0.017033
   6 C :    0.010479
   7 H :   -0.027114
   8 H :   -0.048177
   9 H :   -0.021056
  10 H :   -0.021139
  11 H :   -0.026173
  12 H :    0.095999
  13 H :    0.094974
  14 O :   -0.269511
  15 H :    0.161539
  16 H :    0.157920
Sum of atomic charges:   -0.0000000

LOEWDIN ATOMIC CHARGES
----------------------
   0 N :   -0.037290
   1 C :    0.020328
   2 C :   -0.083278
   3 C :   -0.072420
   4 C :   -0.018721
   5 C :   -0.014926
   6 C :   -0.063979
   7 H :    0.021137
   8 H :    0.019339
   9 H :    0.025624
  10 H :    0.025842
  11 H :    0.022733
  12 H :    0.065359
  13 H :    0.051043
  14 O :   -0.116536
  15 H :    0.081934
  16 H :    0.073811

  Mayer bond orders larger than 0.100000
B(  0-N ,  1-C ) :   1.2183 B(  0-N , 12-H ) :   0.9511 B(  0-N , 13-H ) :   0.9196
B(  1-C ,  2-C ) :   1.3240 B(  1-C ,  3-C ) :   1.3355 B(  2-C ,  4-C ) :   1.3899
B(  2-C ,  7-H ) :   0.9769 B(  3-C ,  5-C ) :   1.3947 B(  3-C ,  8-H ) :   0.9840
B(  4-C ,  6-C ) :   1.3740 B(  4-C ,  9-H ) :   0.9800 B(  5-C ,  6-C ) :   1.3724
B(  5-C , 10-H ) :   0.9786 B(  6-C , 11-H ) :   0.9881 B( 13-H , 14-O ) :   0.1240
B( 14-O , 15-H ) :   0.9944 B( 14-O , 16-H ) :   0.9857

Dispersion correction           -0.026818023
FINAL SINGLE POINT ENERGY      -363.576755300881

DIPOLE MOMENT
-------------

Method             : SCF
Type of density    : Electron Density
Multiplicity       :   1
Irrep              :   0
Energy             :  -363.5499372780812450 Eh
Relativity type    :
Basis              : AO
                                X                 Y                 Z
Electronic contribution:      1.275332359      -0.430040610       1.349708222
Nuclear contribution   :     -1.301392058      -0.122277823      -1.834212171
                        -----------------------------------------
Total Dipole Moment    :     -0.026059699      -0.552318433      -0.484503949
                        -----------------------------------------
Magnitude (a.u.)       :      0.735172658
Magnitude (Debye)      :      1.868660392

Rotational constants in cm-1:             0.106979             0.044305             0.035649
Rotational constants in MHz :          3207.138424          1328.220463          1068.736476

                             ****ORCA TERMINATED NORMALLY****
TOTAL RUN TIME: 0 days 0 hours 2 minutes 43 seconds 838 msec
