                         Program Version 6.0.1  -  RELEASE   -
|  1> ! B3LYP def2-SVP OPT TightSCF D3BJ
|  2>
|  3>
|  4> %maxcore 4000
|  5>
|  6> %pal
|  7> nprocs 28
|  8> end
|  9>
| 10> * xyz 0 1
| 11>   O           2.77197947055358      0.93195919481847      0.30590397299431
| 12>   O           2.60994964368795     -1.13439585293963     -0.32369087682596
| 13>   N           2.12528465800100     -0.05523003169394     -0.01418677291437
| 14>   N          -3.50049763395172      0.40658033316329     -0.11506569195536
| 15>   C           0.66485266499292      0.06366568346840     -0.02876267451783
| 16>   C          -2.11638190487905      0.28674828637602     -0.05100274746487
| 17>   C           0.07282578909238      1.27840950125833      0.32161579579670
| 18>   C          -0.11153570148182     -1.03951562499899     -0.39482108669325
| 19>   C          -1.31257148780720      1.38658461107914      0.30926215314232
| 20>   C          -1.49481367813430     -0.93008098013537     -0.40929454864828
| 21>   H           0.70657561273653      2.11870606750171      0.60276638713747
| 22>   H           0.38790657120091     -1.96926879671497     -0.66619242356838
| 23>   H          -1.78429889604867      2.33302625997809      0.58614089176984
| 24>   H          -2.11574448869050     -1.76720839946438     -0.73179771753918
| 25>   H          -3.90015252290899      1.20128723113281      0.36477357167189
| 26>   H          -4.02600923174279     -0.44825245705539      0.03505936748910
| 27>   O          -3.76261757732187     -1.10941962988160     -2.61011713754425
| 28>   H          -2.90456824228863     -1.02397488912309     -3.04707921417765
| 29>   H          -3.83374357440966     -0.28686662406889     -2.09818294885220
| 30> *
| 31>
| 32>
| 33>                          ****END OF INPUT****
 Total Charge           Charge          ....    0
 Multiplicity           Mult            ....    1
 Number of Electrons    NEL             ....   82
 Basis Dimension        Dim             ....  194

ORBITAL ENERGIES
----------------

  NO   OCC          E(Eh)            E(eV)
   0   2.0000     -19.150840      -521.1208
   1   2.0000     -19.150808      -521.1200
   2   2.0000     -19.121445      -520.3210
   3   2.0000     -14.549366      -395.9084
   4   2.0000     -14.371848      -391.0779
   5   2.0000     -10.261877      -279.2399
   6   2.0000     -10.238466      -278.6028
   7   2.0000     -10.218948      -278.0717
   8   2.0000     -10.217613      -278.0354
   9   2.0000     -10.213272      -277.9173
  10   2.0000     -10.208895      -277.7982
  11   2.0000      -1.211339       -32.9622
  12   2.0000      -1.036924       -28.2161
  13   2.0000      -0.981035       -26.6953
  14   2.0000      -0.945049       -25.7161
  15   2.0000      -0.872294       -23.7363
  16   2.0000      -0.786213       -21.3939
  17   2.0000      -0.767422       -20.8826
  18   2.0000      -0.685570       -18.6553
  19   2.0000      -0.640484       -17.4285
  20   2.0000      -0.593103       -16.1392
  21   2.0000      -0.556757       -15.1501
  22   2.0000      -0.547690       -14.9034
  23   2.0000      -0.531483       -14.4624
  24   2.0000      -0.531096       -14.4519
  25   2.0000      -0.511936       -13.9305
  26   2.0000      -0.496972       -13.5233
  27   2.0000      -0.464412       -12.6373
  28   2.0000      -0.460074       -12.5192
  29   2.0000      -0.447792       -12.1850
  30   2.0000      -0.427566       -11.6347
  31   2.0000      -0.414831       -11.2881
  32   2.0000      -0.372508       -10.1364
  33   2.0000      -0.371380       -10.1058
  34   2.0000      -0.344904        -9.3853
  35   2.0000      -0.303552        -8.2601
  36   2.0000      -0.301895        -8.2150
  37   2.0000      -0.295882        -8.0513
  38   2.0000      -0.284254        -7.7349
  39   2.0000      -0.281139        -7.6502
  40   2.0000      -0.244598        -6.6558
  41   0.0000      -0.079542        -2.1644
  42   0.0000      -0.033523        -0.9122
  43   0.0000       0.006142         0.1671
  44   0.0000       0.031921         0.8686
  45   0.0000       0.061799         1.6816

MULLIKEN ATOMIC CHARGES
-----------------------
   0 O :   -0.251220
   1 O :   -0.250412
   2 N :    0.235074
   3 N :   -0.089887
   4 C :    0.173180
   5 C :    0.074342
   6 C :   -0.021649
   7 C :   -0.020519
   8 C :   -0.019007
   9 C :   -0.046975
  10 H :    0.006577
  11 H :    0.007296
  12 H :   -0.027843
  13 H :   -0.017826
  14 H :    0.115662
  15 H :    0.136736
  16 O :   -0.298852
  17 H :    0.156411
  18 H :    0.138913
Sum of atomic charges:   -0.0000000

LOEWDIN ATOMIC CHARGES
----------------------
   0 O :   -0.216303
   1 O :   -0.215461
   2 N :    0.276513
   3 N :   -0.009965
   4 C :   -0.051647
   5 C :    0.035005
   6 C :    0.008934
   7 C :    0.007104
   8 C :   -0.056490
   9 C :   -0.056964
  10 H :    0.041928
  11 H :    0.042008
  12 H :    0.028403
  13 H :    0.027632
  14 H :    0.076076
  15 H :    0.082520
  16 O :   -0.145217
  17 H :    0.075677
  18 H :    0.050245

  Mayer bond orders larger than 0.100000
B(  0-O ,  1-O ) :   0.2711 B(  0-O ,  2-N ) :   1.5382 B(  1-O ,  2-N ) :   1.5385
B(  2-N ,  4-C ) :   0.8781 B(  3-N ,  5-C ) :   1.1971 B(  3-N , 14-H ) :   0.9459
B(  3-N , 15-H ) :   0.9386 B(  4-C ,  6-C ) :   1.3588 B(  4-C ,  7-C ) :   1.3486
B(  5-C ,  8-C ) :   1.3124 B(  5-C ,  9-C ) :   1.3107 B(  6-C ,  8-C ) :   1.3715
B(  6-C , 10-H ) :   0.9819 B(  7-C ,  9-C ) :   1.3673 B(  7-C , 11-H ) :   0.9842
B(  8-C , 12-H ) :   0.9872 B(  9-C , 13-H ) :   0.9823 B( 16-O , 17-H ) :   0.9991
B( 16-O , 18-H ) :   0.9750

Dispersion correction           -0.032878328
FINAL SINGLE POINT ENERGY      -567.850894209177
Dispersion correction             ... done (  0.0 sec)
Dispersion correction           -0.032879048
FINAL SINGLE POINT ENERGY      -567.850916384019
Dispersion correction             ... done (  0.0 sec)
Dispersion correction           -0.032877642
FINAL SINGLE POINT ENERGY      -567.850918681683
Dispersion correction             ... done (  0.0 sec)
FINAL SINGLE POINT ENERGY      -567.850916977196
FINAL SINGLE POINT ENERGY      -567.850929093703
FINAL SINGLE POINT ENERGY      -567.850933182225
FINAL SINGLE POINT ENERGY      -567.850942932575
FINAL SINGLE POINT ENERGY      -567.850949605200
FINAL SINGLE POINT ENERGY      -567.850957101530
FINAL SINGLE POINT ENERGY      -567.850964263983
FINAL SINGLE POINT ENERGY      -567.855771587671
FINAL SINGLE POINT ENERGY      -567.855783531983
FINAL SINGLE POINT ENERGY      -567.855791333148
FINAL SINGLE POINT ENERGY      -567.855796412213
FINAL SINGLE POINT ENERGY      -567.855802014330
FINAL SINGLE POINT ENERGY      -567.855808182817
FINAL SINGLE POINT ENERGY      -567.855816751308
Dispersion correction           -0.031590875
FINAL SINGLE POINT ENERGY      -567.855830406026
Dispersion correction             ... done (  0.0 sec)
Dispersion correction           -0.031607214
FINAL SINGLE POINT ENERGY      -567.855851103333
Dispersion correction             ... done (  0.0 sec)

CARTESIAN COORDINATES (ANGSTROEM)
---------------------------------
  O      2.876565    0.809467    0.854486
  O      2.772695   -0.963324   -0.386619
  N      2.256319   -0.013793    0.190543
  N     -3.316090    0.600010   -0.253246
  C      0.813339    0.148094    0.082999
  C     -1.969625    0.462997   -0.136183
  C      0.184702    1.219900    0.726176
  C      0.068243   -0.770002   -0.666825
  C     -1.188104    1.374508    0.618247
  C     -1.303289   -0.617878   -0.773849
  H      0.786454    1.920564    1.304398
  H      0.590630   -1.592524   -1.154743
  H     -1.679672    2.211263    1.121779
  H     -1.896050   -1.321863   -1.360359
  H     -3.773590    1.421981    0.114049
  H     -3.833884   -0.033681   -0.860471
  O     -4.421495   -1.263550   -2.203903
  H     -4.436404   -2.224593   -2.092167
  H     -4.054303   -1.124822   -3.088984

Dispersion correction           -0.031641482
FINAL SINGLE POINT ENERGY      -567.855893790908
Dispersion correction             ... done (  0.0 sec)
                             ****ORCA TERMINATED NORMALLY****
TOTAL RUN TIME: 0 days 0 hours 10 minutes 37 seconds 509 msec
