                         Program Version 6.0.1  -  RELEASE   -
|  1> ! B3LYP def2-SVP SP TightSCF ALLPOP KEEPDENS
|  2>
|  3> %maxcore 5000
|  4>
|  5> %pal
|  6> nprocs 20
|  7> end
|  8>
|  9> * xyz 0 1
| 10>   N           2.57569900862416      4.47033165870688      0.84416841849188
| 11>   N          -4.16821430747644      3.73172853145887      0.50197548361131
| 12>   C           1.22250078737340      4.33878923328171      0.77776486235019
| 13>   C           0.57620625032904      3.23837363802865      1.39531273774590
| 14>   C           0.41702878432930      5.27633863062684      0.08705668331283
| 15>   C          -1.59488147380637      4.02158356448956      0.63121346806611
| 16>   C          -0.79872694759681      3.08526457007108      1.32205801067673
| 17>   C          -0.95867257137649      5.11912613920259      0.01646135833996
| 18>   C          -3.01394190283021      3.86169836955679      0.55812304626566
| 19>   H           1.18890204061066      2.51399366355187      1.93395135014151
| 20>   H           0.89095388609897      6.13433192751799     -0.39722427987909
| 21>   H          -1.27677336338696      2.23032297381215      1.80500471166892
| 22>   H          -1.56152110146796      5.85375130688637     -0.52143795557964
| 23>   H           3.02054816466643      5.29888418023931      0.47662287258035
| 24>   H           3.12153264712212      3.82743341744885      1.41545186704554
| 25>   O           3.70740155355572      2.39371537822691      2.59860373270928
| 26>   H           3.59421127346778      1.49199822686891      2.26648189411762
| 27>   H           3.27619727176363      2.38688459002447      3.46482173833484
| 28> *
| 29>
| 30>                          ****END OF INPUT****

CARTESIAN COORDINATES (ANGSTROEM)
---------------------------------
  N      2.575699    4.470332    0.844168
  N     -4.168214    3.731729    0.501975
  C      1.222501    4.338789    0.777765
  C      0.576206    3.238374    1.395313
  C      0.417029    5.276339    0.087057
  C     -1.594881    4.021584    0.631213
  C     -0.798727    3.085265    1.322058
  C     -0.958673    5.119126    0.016461
  C     -3.013942    3.861698    0.558123
  H      1.188902    2.513994    1.933951
  H      0.890954    6.134332   -0.397224
  H     -1.276773    2.230323    1.805005
  H     -1.561521    5.853751   -0.521438
  H      3.020548    5.298884    0.476623
  H      3.121533    3.827433    1.415452
  O      3.707402    2.393715    2.598604
  H      3.594211    1.491998    2.266482
  H      3.276197    2.386885    3.464822

 Total Charge           Charge          ....    0
 Multiplicity           Mult            ....    1
 Number of Electrons    NEL             ....   72
 Basis Dimension        Dim             ....  180

ORBITAL ENERGIES
----------------

  NO   OCC          E(Eh)            E(eV)
   0   2.0000     -19.174969      -521.7774
   1   2.0000     -14.336906      -390.1270
   2   2.0000     -14.300220      -389.1288
   3   2.0000     -10.240636      -278.6619
   4   2.0000     -10.206621      -277.7363
   5   2.0000     -10.202808      -277.6325
   6   2.0000     -10.201819      -277.6056
   7   2.0000     -10.201258      -277.5903
   8   2.0000     -10.188948      -277.2554
   9   2.0000     -10.188846      -277.2526
  10   2.0000      -1.031228       -28.0611
  11   2.0000      -0.917904       -24.9774
  12   2.0000      -0.873343       -23.7649
  13   2.0000      -0.837560       -22.7912
  14   2.0000      -0.746336       -20.3088
  15   2.0000      -0.739732       -20.1291
  16   2.0000      -0.626139       -17.0381
  17   2.0000      -0.619266       -16.8511
  18   2.0000      -0.563091       -15.3225
  19   2.0000      -0.545530       -14.8446
  20   2.0000      -0.526181       -14.3181
  21   2.0000      -0.520487       -14.1632
  22   2.0000      -0.450295       -12.2532
  23   2.0000      -0.443082       -12.0569
  24   2.0000      -0.428507       -11.6603
  25   2.0000      -0.417537       -11.3617
  26   2.0000      -0.400231       -10.8908
  27   2.0000      -0.397273       -10.8103
  28   2.0000      -0.359703        -9.7880
  29   2.0000      -0.355405        -9.6711
  30   2.0000      -0.340549        -9.2668
  31   2.0000      -0.334763        -9.1094
  32   2.0000      -0.311284        -8.4705
  33   2.0000      -0.298048        -8.1103
  34   2.0000      -0.263770        -7.1775
  35   2.0000      -0.205523        -5.5926
  36   0.0000      -0.020460        -0.5568
  37   0.0000      -0.013026        -0.3545
  38   0.0000       0.008617         0.2345
  39   0.0000       0.055521         1.5108
  40   0.0000       0.064119         1.7448

MULLIKEN ATOMIC CHARGES
-----------------------
   0 N :   -0.058727
   1 N :    0.032974
   2 C :    0.090094
   3 C :   -0.027042
   4 C :   -0.040227
   5 C :   -0.105460
   6 C :    0.045764
   7 C :    0.041076
   8 C :   -0.125953
   9 H :   -0.096099
  10 H :   -0.040053
  11 H :   -0.019361
  12 H :   -0.014714
  13 H :    0.107681
  14 H :    0.103745
  15 O :   -0.247874
  16 H :    0.177090
  17 H :    0.177084
Sum of atomic charges:    0.0000000

LOEWDIN ATOMIC CHARGES
----------------------
   0 N :   -0.005991
   1 N :   -0.095267
   2 C :    0.044872
   3 C :   -0.074029
   4 C :   -0.070776
   5 C :   -0.111045
   6 C :    0.013387
   7 C :    0.016412
   8 C :   -0.032615
   9 H :    0.007379
  10 H :    0.023743
  11 H :    0.033927
  12 H :    0.035819
  13 H :    0.072892
  14 H :    0.055272
  15 O :   -0.093467
  16 H :    0.089923
  17 H :    0.089563

  Mayer bond orders larger than 0.100000
B(  0-N ,  2-C ) :   1.3192 B(  0-N , 13-H ) :   0.9452 B(  0-N , 14-H ) :   0.9002
B(  1-N ,  8-C ) :   2.9979 B(  2-C ,  3-C ) :   1.2812 B(  2-C ,  4-C ) :   1.2771
B(  3-C ,  6-C ) :   1.4096 B(  3-C ,  9-H ) :   0.9673 B(  4-C ,  7-C ) :   1.4179
B(  4-C , 10-H ) :   0.9851 B(  5-C ,  6-C ) :   1.3415 B(  5-C ,  7-C ) :   1.3438
B(  5-C ,  8-C ) :   1.0852 B(  6-C , 11-H ) :   0.9844 B(  7-C , 12-H ) :   0.9840
B( 14-H , 15-O ) :   0.1268 B( 15-O , 16-H ) :   0.9876 B( 15-O , 17-H ) :   0.9872

FINAL SINGLE POINT ENERGY      -455.685484341737

DIPOLE MOMENT
-------------

Method             : SCF
Type of density    : Electron Density
Multiplicity       :   1
Irrep              :   0
Energy             :  -455.6854843417374923 Eh
Relativity type    :
Basis              : AO
                                X                 Y                 Z
Electronic contribution:     -8.650691219       0.980270946      -1.965848634
Nuclear contribution   :     11.569684456      -1.379365732       2.737875903
                        -----------------------------------------
Total Dipole Moment    :      2.918993237      -0.399094786       0.772027269
                        -----------------------------------------
Magnitude (a.u.)       :      3.045623790
Magnitude (Debye)      :      7.741360459

Rotational constants in cm-1:             0.102468             0.020220             0.016938
Rotational constants in MHz :          3071.915069           606.185414           507.803170

                             ****ORCA TERMINATED NORMALLY****
TOTAL RUN TIME: 0 days 0 hours 0 minutes 5 seconds 850 msec
