                         Program Version 6.0.1  -  RELEASE   -
|  1> ! B3LYP def2-SVP SP TightSCF ALLPOP KEEPDENS
|  2>
|  3> %maxcore 5000
|  4>
|  5> %pal
|  6> nprocs 20
|  7> end
|  8>
|  9> * xyz 0 1
| 10>   O          -2.39738432029708      7.88767853901665      0.56008712905688
| 11>   O          -2.19572676282571      5.82558197183011     -0.07202020080325
| 12>   N          -2.85853145473574      6.82217383128086      0.17754186564761
| 13>   N          -8.45753968272795      6.47774104035978     -0.43994270345528
| 14>   C          -4.31232855500291      6.73287114630006      0.00571570577980
| 15>   C          -7.07424543382966      6.56670395849996     -0.33142255152655
| 16>   C          -5.10692768169447      7.84636158896585      0.29241222460546
| 17>   C          -4.87630074066452      5.53530265912102     -0.43669856750140
| 18>   C          -6.48275032895989      7.76208712910974      0.12962041614670
| 19>   C          -6.25357272353526      5.45503821394194     -0.60438750649980
| 20>   H          -4.63066132924113      8.75979804425142      0.64738425206190
| 21>   H          -4.22453374056660      4.68826653905043     -0.64822455626904
| 22>   H          -7.12144586455197      8.60475588248632      0.40001222513933
| 23>   H          -6.70452578830288      4.52364202014323     -0.95643865887994
| 24>   H          -8.94011923213887      7.32785295395154     -0.71629666385601
| 25>   H          -8.82146326250102      5.65066256968721     -0.90289779027027
| 26>   O          -8.81358695855075      7.49432698881838      2.31641747870845
| 27>   H          -7.97122530250585      7.19687634653477      2.68497188919602
| 28>   H          -8.86001083736742      7.01898857665045      1.47041601271940
| 29> *
| 30>
| 31>                          ****END OF INPUT****

CARTESIAN COORDINATES (ANGSTROEM)
---------------------------------
  O     -2.397384    7.887679    0.560087
  O     -2.195727    5.825582   -0.072020
  N     -2.858531    6.822174    0.177542
  N     -8.457540    6.477741   -0.439943
  C     -4.312329    6.732871    0.005716
  C     -7.074245    6.566704   -0.331423
  C     -5.106928    7.846362    0.292412
  C     -4.876301    5.535303   -0.436699
  C     -6.482750    7.762087    0.129620
  C     -6.253573    5.455038   -0.604388
  H     -4.630661    8.759798    0.647384
  H     -4.224534    4.688267   -0.648225
  H     -7.121446    8.604756    0.400012
  H     -6.704526    4.523642   -0.956439
  H     -8.940119    7.327853   -0.716297
  H     -8.821463    5.650663   -0.902898
  O     -8.813587    7.494327    2.316417
  H     -7.971225    7.196876    2.684972
  H     -8.860011    7.018989    1.470416

 Total Charge           Charge          ....    0
 Multiplicity           Mult            ....    1
 Number of Electrons    NEL             ....   82
 Basis Dimension        Dim             ....  194

ORBITAL ENERGIES
----------------

  NO   OCC          E(Eh)            E(eV)
   0   2.0000     -19.153545      -521.1945
   1   2.0000     -19.153502      -521.1933
   2   2.0000     -19.107835      -519.9506
   3   2.0000     -14.552008      -395.9803
   4   2.0000     -14.377166      -391.2226
   5   2.0000     -10.265140      -279.3287
   6   2.0000     -10.241799      -278.6935
   7   2.0000     -10.221877      -278.1514
   8   2.0000     -10.220661      -278.1183
   9   2.0000     -10.216854      -278.0147
  10   2.0000     -10.213259      -277.9169
  11   2.0000      -1.214094       -33.0372
  12   2.0000      -1.039769       -28.2936
  13   2.0000      -0.969429       -26.3795
  14   2.0000      -0.948731       -25.8163
  15   2.0000      -0.875624       -23.8270
  16   2.0000      -0.789362       -21.4796
  17   2.0000      -0.770873       -20.9765
  18   2.0000      -0.688824       -18.7439
  19   2.0000      -0.644029       -17.5249
  20   2.0000      -0.596470       -16.2308
  21   2.0000      -0.560136       -15.2421
  22   2.0000      -0.550506       -14.9800
  23   2.0000      -0.534708       -14.5501
  24   2.0000      -0.533803       -14.5255
  25   2.0000      -0.502207       -13.6658
  26   2.0000      -0.499603       -13.5949
  27   2.0000      -0.467755       -12.7282
  28   2.0000      -0.464891       -12.6503
  29   2.0000      -0.451275       -12.2798
  30   2.0000      -0.430342       -11.7102
  31   2.0000      -0.418116       -11.3775
  32   2.0000      -0.375683       -10.2228
  33   2.0000      -0.364896        -9.9293
  34   2.0000      -0.341533        -9.2936
  35   2.0000      -0.306038        -8.3277
  36   2.0000      -0.304032        -8.2731
  37   2.0000      -0.288894        -7.8612
  38   2.0000      -0.286849        -7.8056
  39   2.0000      -0.280063        -7.6209
  40   2.0000      -0.248940        -6.7740
  41   0.0000      -0.082394        -2.2421
  42   0.0000      -0.036461        -0.9922
  43   0.0000       0.002649         0.0721
  44   0.0000       0.026946         0.7332
  45   0.0000       0.059419         1.6169

MULLIKEN ATOMIC CHARGES
-----------------------
   0 O :   -0.247950
   1 O :   -0.249432
   2 N :    0.234552
   3 N :   -0.096071
   4 C :    0.173439
   5 C :    0.072302
   6 C :   -0.022974
   7 C :   -0.020714
   8 C :   -0.040116
   9 C :   -0.013947
  10 H :    0.009961
  11 H :    0.008114
  12 H :   -0.017027
  13 H :   -0.026086
  14 H :    0.139634
  15 H :    0.119806
  16 O :   -0.306623
  17 H :    0.151302
  18 H :    0.131831
Sum of atomic charges:    0.0000000

LOEWDIN ATOMIC CHARGES
----------------------
   0 O :   -0.213134
   1 O :   -0.214634
   2 N :    0.276456
   3 N :   -0.007041
   4 C :   -0.049242
   5 C :    0.030766
   6 C :    0.008547
   7 C :    0.009235
   8 C :   -0.053211
   9 C :   -0.054759
  10 H :    0.043211
  11 H :    0.042520
  12 H :    0.030269
  13 H :    0.029125
  14 H :    0.084346
  15 H :    0.079271
  16 O :   -0.153045
  17 H :    0.071956
  18 H :    0.039365

  Mayer bond orders larger than 0.100000
B(  0-O ,  1-O ) :   0.2726 B(  0-O ,  2-N ) :   1.5404 B(  1-O ,  2-N ) :   1.5394
B(  2-N ,  4-C ) :   0.8753 B(  3-N ,  5-C ) :   1.1766 B(  3-N , 14-H ) :   0.9412
B(  3-N , 15-H ) :   0.9450 B(  4-C ,  6-C ) :   1.3506 B(  4-C ,  7-C ) :   1.3624
B(  5-C ,  8-C ) :   1.3112 B(  5-C ,  9-C ) :   1.3178 B(  6-C ,  8-C ) :   1.3715
B(  6-C , 10-H ) :   0.9841 B(  7-C ,  9-C ) :   1.3675 B(  7-C , 11-H ) :   0.9814
B(  8-C , 12-H ) :   0.9861 B(  9-C , 13-H ) :   0.9869 B( 16-O , 17-H ) :   1.0036
B( 16-O , 18-H ) :   0.9755

FINAL SINGLE POINT ENERGY      -567.816704714432

DIPOLE MOMENT
-------------

Method             : SCF
Type of density    : Electron Density
Multiplicity       :   1
Irrep              :   0
Energy             :  -567.8167047144318076 Eh
Relativity type    :
Basis              : AO
                                X                 Y                 Z
Electronic contribution:     11.454351624      -0.178273786      -1.469523754
Nuclear contribution   :    -13.300152428      -0.446979068       0.354794338
                        -----------------------------------------
Total Dipole Moment    :     -1.845800803      -0.625252854      -1.114729416
                        -----------------------------------------
Magnitude (a.u.)       :      2.245115456
Magnitude (Debye)      :      5.706629975

Rotational constants in cm-1:             0.073728             0.018808             0.016331
Rotational constants in MHz :          2210.315922           563.838520           489.598221

                             ****ORCA TERMINATED NORMALLY****
TOTAL RUN TIME: 0 days 0 hours 0 minutes 6 seconds 143 msec
