                         Program Version 6.0.1  -  RELEASE   -
|  1> ! B3LYP def2-SVP SP TightSCF ALLPOP KEEPDENS
|  2>
|  3> %maxcore 5000
|  4>
|  5> %pal
|  6> nprocs 20
|  7> end
|  8>
|  9> * xyz -1 2
| 10>   O          -0.00459134471940      0.00000000000000      0.00000000000000
| 11>   O           1.33459134471940      0.00000000000000      0.00000000000000
| 12> *
| 13>
| 14>                          ****END OF INPUT****

CARTESIAN COORDINATES (ANGSTROEM)
---------------------------------
  O     -0.004591    0.000000    0.000000
  O      1.334591    0.000000    0.000000

 Total Charge           Charge          ....   -1
 Multiplicity           Mult            ....    2
 Number of Electrons    NEL             ....   17
 Basis Dimension        Dim             ....   28

ORBITAL ENERGIES
----------------
                 SPIN UP ORBITALS
  NO   OCC          E(Eh)            E(eV)
   0   1.0000     -18.807335      -511.7736
   1   1.0000     -18.807055      -511.7660
   2   1.0000      -0.735804       -20.0222
   3   1.0000      -0.396186       -10.7808
   4   1.0000      -0.089636        -2.4391
   5   1.0000      -0.086663        -2.3582
   6   1.0000      -0.049429        -1.3450
   7   1.0000       0.099428         2.7056
   8   1.0000       0.143299         3.8994
   9   0.0000       0.506388        13.7795
  10   0.0000       1.112424        30.2706
  11   0.0000       1.174641        31.9636
  12   0.0000       1.196835        32.5675
  13   0.0000       1.227509        33.4022

                 SPIN DOWN ORBITALS
  NO   OCC          E(Eh)            E(eV)
   0   1.0000     -18.793249      -511.3903
   1   1.0000     -18.793018      -511.3840
   2   1.0000      -0.705649       -19.2017
   3   1.0000      -0.353736        -9.6257
   4   1.0000      -0.069695        -1.8965
   5   1.0000      -0.037000        -1.0068
   6   1.0000      -0.002922        -0.0795
   7   1.0000       0.158678         4.3178
   8   0.0000       0.267716         7.2849
   9   0.0000       0.527439        14.3523
  10   0.0000       1.128935        30.7199
  11   0.0000       1.186692        32.2915
  12   0.0000       1.236284        33.6410

MULLIKEN ATOMIC CHARGES AND SPIN POPULATIONS
--------------------------------------------
   0 O :   -0.500000    0.500000
   1 O :   -0.500000    0.500000
Sum of atomic charges         :   -1.0000000

LOEWDIN ATOMIC CHARGES AND SPIN POPULATIONS
-------------------------------------------
   0 O :   -0.500000    0.500000
   1 O :   -0.500000    0.500000

  Mayer bond orders larger than 0.100000
B(  0-O ,  1-O ) :   1.4002

FINAL SINGLE POINT ENERGY      -150.118335051736

DIPOLE MOMENT
-------------

Method             : SCF
Type of density    : Electron Density
Multiplicity       :   2
Irrep              :   0
Energy             :  -150.1183350517364943 Eh
Relativity type    :
Basis              : AO
                                X                 Y                 Z
Electronic contribution:      0.000000008      -0.000000001      -0.000000002
Nuclear contribution   :      0.000000000       0.000000000       0.000000000
                        -----------------------------------------
Total Dipole Moment    :      0.000000008      -0.000000001      -0.000000002
                        -----------------------------------------
Magnitude (a.u.)       :      0.000000009
Magnitude (Debye)      :      0.000000022

Rotational constants in cm-1:             0.000000             1.175045             1.175045
Rotational constants in MHz :             0.000000         35226.955227         35226.955227

                             ****ORCA TERMINATED NORMALLY****
TOTAL RUN TIME: 0 days 0 hours 0 minutes 5 seconds 269 msec
