                         Program Version 6.0.1  -  RELEASE   -
|  1> ! B3LYP def2-SVP OPT TightSCF D3BJ
|  2>
|  3>
|  4> %maxcore 4000
|  5>
|  6> %pal
|  7> nprocs 28
|  8> end
|  9>
| 10> * xyz 0 1
| 11>   N          -2.52084091023975      0.19779112276586      0.02118450130525
| 12>   C          -1.12396363333801      0.14972535217109      0.02043920716364
| 13>   C          -0.34875011485849      1.31141793688940     -0.14573336946439
| 14>   C          -0.47317840587718     -1.07028692010055      0.26985125803315
| 15>   C           1.04281334266286      1.24999815394123     -0.06673798502378
| 16>   C           0.91888574892368     -1.12227840775256      0.34167227360172
| 17>   C           1.68806975307439      0.03362853696211      0.17464781269180
| 18>   H          -0.84550990406733      2.26751684977242     -0.33502880743775
| 19>   H          -1.06849007205679     -1.97283101242976      0.42976426659583
| 20>   H           1.62831204017076      2.16343228549988     -0.19951986122304
| 21>   H           1.40808626639026     -2.08051741999009      0.53407557526183
| 22>   H           2.77746215790859     -0.01315905868877      0.23343705271735
| 23>   H          -2.96786682393273     -0.63570714011431     -0.36650985713995
| 24>   H          -2.91059578300807      1.05220445746963     -0.37384086086954
| 25>   O          -2.30620436951312     -0.55868809567126      2.88197302719988
| 26>   H          -1.34281019978077     -0.54641399859569      2.80896787707133
| 27>   H          -2.58440876775828     -0.23363580022861      2.00739881971663
| 28> *
| 29>
| 30>
| 31>                          ****END OF INPUT****
 Total Charge           Charge          ....    0
 Multiplicity           Mult            ....    1
 Number of Electrons    NEL             ....   60
Dispersion correction           -0.027399800
FINAL SINGLE POINT ENERGY      -363.576846941177
Dispersion correction             ... done (  0.0 sec)
Dispersion correction           -0.027370079
FINAL SINGLE POINT ENERGY      -363.576951427707
Dispersion correction             ... done (  0.0 sec)
Dispersion correction           -0.027353040
FINAL SINGLE POINT ENERGY      -363.576970618925
Dispersion correction             ... done (  0.0 sec)
FINAL SINGLE POINT ENERGY      -363.576992692325
FINAL SINGLE POINT ENERGY      -363.577019252129
FINAL SINGLE POINT ENERGY      -363.577053190563
FINAL SINGLE POINT ENERGY      -363.577087788684
FINAL SINGLE POINT ENERGY      -363.577115648334
FINAL SINGLE POINT ENERGY      -363.577135324738
FINAL SINGLE POINT ENERGY      -363.577152127054
FINAL SINGLE POINT ENERGY      -363.578094437905
FINAL SINGLE POINT ENERGY      -363.578101451916
FINAL SINGLE POINT ENERGY      -363.578104433004
FINAL SINGLE POINT ENERGY      -363.578106245871
FINAL SINGLE POINT ENERGY      -363.578108195469
FINAL SINGLE POINT ENERGY      -363.578110233311
FINAL SINGLE POINT ENERGY      -363.578113534114
Dispersion correction             ... done (  0.0 sec)
Dispersion correction           -0.026858504
FINAL SINGLE POINT ENERGY      -363.578115374804
Dispersion correction             ... done (  0.0 sec)
Dispersion correction           -0.026859316
FINAL SINGLE POINT ENERGY      -363.578117278733
Dispersion correction             ... done (  0.0 sec)
                    ***********************HURRAY********************

CARTESIAN COORDINATES (ANGSTROEM)
---------------------------------
  N     -2.434481    0.367419    0.181477
  C     -1.035038    0.265288    0.091173
  C     -0.251314    1.367064   -0.286984
  C     -0.395084   -0.935401    0.450353
  C      1.141332    1.267706   -0.312370
  C      0.995775   -1.025584    0.414269
  C      1.775482    0.071855    0.033165
  H     -0.738792    2.306220   -0.564924
  H     -1.002933   -1.776454    0.790130
  H      1.734169    2.135988   -0.611777
  H      1.476729   -1.966849    0.693538
  H      2.864692   -0.004484    0.008005
  H     -2.928694   -0.480587   -0.085703
  H     -2.825657    1.176249   -0.292817
  O     -2.744567   -1.149395    2.625459
  H     -1.893303   -1.049484    3.072220
  H     -2.767306   -0.377354    2.030828

 Multiplicity           Mult            ....    1
 Number of Electrons    NEL             ....   60
 Basis Dimension        Dim             ....  157

ORBITAL ENERGIES
----------------

  NO   OCC          E(Eh)            E(eV)
   0   2.0000     -19.098569      -519.6985
   1   2.0000     -14.346109      -390.3775
   2   2.0000     -10.229017      -278.3457
   3   2.0000     -10.189613      -277.2735
   4   2.0000     -10.188593      -277.2457
   5   2.0000     -10.186587      -277.1911
   6   2.0000     -10.182047      -277.0676
   7   2.0000     -10.180830      -277.0345
   8   2.0000      -0.958253       -26.0754
   9   2.0000      -0.916372       -24.9357
  10   2.0000      -0.830365       -22.5954
  11   2.0000      -0.736610       -20.0442
  12   2.0000      -0.719546       -19.5798
  13   2.0000      -0.608727       -16.5643
  14   2.0000      -0.594430       -16.1753
  15   2.0000      -0.525237       -14.2924
  16   2.0000      -0.515409       -14.0250
  17   2.0000      -0.487274       -13.2594
  18   2.0000      -0.475917       -12.9503
  19   2.0000      -0.434978       -11.8363
  20   2.0000      -0.430963       -11.7271
  21   2.0000      -0.418894       -11.3987
  22   2.0000      -0.389853       -10.6084
  23   2.0000      -0.360309        -9.8045
  24   2.0000      -0.350403        -9.5350
  25   2.0000      -0.344074        -9.3627
  26   2.0000      -0.315789        -8.5931
  27   2.0000      -0.273982        -7.4554
  28   2.0000      -0.253926        -6.9097
  29   2.0000      -0.218177        -5.9369
  30   0.0000      -0.008602        -0.2341
  31   0.0000       0.004106         0.1117
  32   0.0000       0.049542         1.3481
  33   0.0000       0.068584         1.8663
  34   0.0000       0.081387         2.2147

MULLIKEN ATOMIC CHARGES
-----------------------
   0 N :   -0.112141
   1 C :    0.044058
   2 C :   -0.015652
   3 C :   -0.044611
   4 C :    0.013388
   5 C :    0.014089
   6 C :    0.019469
   7 H :   -0.043736
   8 H :   -0.034199
   9 H :   -0.018426
  10 H :   -0.016744
  11 H :   -0.022094
  12 H :    0.130829
  13 H :    0.106760
  14 O :   -0.307694
  15 H :    0.150376
  16 H :    0.136329
Sum of atomic charges:    0.0000000

LOEWDIN ATOMIC CHARGES
----------------------
   0 N :   -0.029921
   1 C :    0.013208
   2 C :   -0.064030
   3 C :   -0.063969
   4 C :   -0.016648
   5 C :   -0.016713
   6 C :   -0.051615
   7 H :    0.020969
   8 H :    0.020646
   9 H :    0.026962
  10 H :    0.027392
  11 H :    0.024571
  12 H :    0.078029
  13 H :    0.071248
  14 O :   -0.155296
  15 H :    0.071418
  16 H :    0.043751

  Mayer bond orders larger than 0.100000
B(  0-N ,  1-C ) :   1.1339 B(  0-N , 12-H ) :   0.9424 B(  0-N , 13-H ) :   0.9488
B(  0-N , 16-H ) :   0.1076 B(  1-C ,  2-C ) :   1.3605 B(  1-C ,  3-C ) :   1.3578
B(  2-C ,  4-C ) :   1.3868 B(  2-C ,  7-H ) :   0.9834 B(  3-C ,  5-C ) :   1.3871
B(  3-C ,  8-H ) :   0.9791 B(  4-C ,  6-C ) :   1.3846 B(  4-C ,  9-H ) :   0.9793
B(  5-C ,  6-C ) :   1.3707 B(  5-C , 10-H ) :   0.9815 B(  6-C , 11-H ) :   0.9878
B( 14-O , 15-H ) :   1.0018 B( 14-O , 16-H ) :   0.9646

Dispersion correction           -0.026863498
FINAL SINGLE POINT ENERGY      -363.578117727894

DIPOLE MOMENT
-------------

Method             : SCF
Type of density    : Electron Density
Multiplicity       :   1
Irrep              :   0
Energy             :  -363.5512542297907430 Eh
Relativity type    :
Basis              : AO
                                X                 Y                 Z
Electronic contribution:      1.518918044       0.547458429      -1.295775174
Nuclear contribution   :     -1.392442614       0.037165837       0.632231962
                        -----------------------------------------
Total Dipole Moment    :      0.126475430       0.584624266      -0.663543212
                        -----------------------------------------
Magnitude (a.u.)       :      0.893348287
Magnitude (Debye)      :      2.270710888

Rotational constants in cm-1:             0.113268             0.043609             0.034325
Rotational constants in MHz :          3395.690437          1307.364258          1029.046913

                             ****ORCA TERMINATED NORMALLY****
TOTAL RUN TIME: 0 days 0 hours 6 minutes 1 seconds 238 msec
