                         Program Version 6.0.1  -  RELEASE   -
|  1> ! B3LYP def2-SVP OPT TightSCF D3BJ
|  2>
|  3>
|  4> %maxcore 4000
|  5>
|  6> %pal
|  7> nprocs 28
|  8> end
|  9>
| 10> * xyz 0 1
| 11>   N          -2.87104173596186      0.34857161574013      0.18080104635216
| 12>   C           1.36949827470330      0.11293059212615      0.05488663566935
| 13>   C          -1.46568417513602      0.27774106977076      0.09584671959079
| 14>   C           0.57865548424361     -0.99620165146379      0.39778291187446
| 15>   C           0.70537400634702      1.30692313669075     -0.25315097696278
| 16>   C          -0.81173518835766     -0.92191239023182      0.42790035495026
| 17>   C          -0.68886963901334      1.39383055201072     -0.23922483550433
| 18>   C           2.87333781217269      0.01030682736669      0.00558663765204
| 19>   H           1.06091884966825     -1.94243057563754      0.66063236389993
| 20>   H           1.28896540597753      2.19348899624604     -0.51730103720657
| 21>   H          -1.40682570503648     -1.77948566243095      0.75014858750716
| 22>   H          -1.17916052157378      2.33869347005666     -0.49132086207536
| 23>   H           3.34612015894116      1.00444593854340      0.00537816027253
| 24>   H           3.26852734738357     -0.55240210197942      0.86699403753801
| 25>   H           3.21162456320220     -0.51554098915304     -0.90505207998530
| 26>   H          -3.27381420994963      1.20281346704162     -0.19254168826471
| 27>   H          -3.33748681918195     -0.46114431454625     -0.21807084542551
| 28>   O          -3.18038802865458     -1.12082153650020      2.66926340774017
| 29>   H          -2.29636110730763     -0.99520658999832      3.03947417045131
| 30>   H          -3.19121753166639     -0.48584579365159      1.92902643692635
| 31> *
| 32>
| 33>                          ****END OF INPUT****
 Total Charge           Charge          ....    0
 Multiplicity           Mult            ....    1
 Number of Electrons    NEL             ....   68
Dispersion correction           -0.032141652
FINAL SINGLE POINT ENERGY      -402.841894074025
Dispersion correction             ... done (  0.0 sec)
Dispersion correction           -0.032137275
FINAL SINGLE POINT ENERGY      -402.841947191305
Dispersion correction             ... done (  0.0 sec)
Dispersion correction           -0.032158554
FINAL SINGLE POINT ENERGY      -402.842064783328
Dispersion correction             ... done (  0.0 sec)
FINAL SINGLE POINT ENERGY      -402.842125284541
FINAL SINGLE POINT ENERGY      -402.842184333149
FINAL SINGLE POINT ENERGY      -402.842226947435
FINAL SINGLE POINT ENERGY      -402.842260892354
FINAL SINGLE POINT ENERGY      -402.842277686791
FINAL SINGLE POINT ENERGY      -402.842288841427
FINAL SINGLE POINT ENERGY      -402.842296924852
FINAL SINGLE POINT ENERGY      -402.842353285955
FINAL SINGLE POINT ENERGY      -402.842354089644
FINAL SINGLE POINT ENERGY      -402.842355315334
FINAL SINGLE POINT ENERGY      -402.842357090370
FINAL SINGLE POINT ENERGY      -402.842359249937
FINAL SINGLE POINT ENERGY      -402.842360958855
FINAL SINGLE POINT ENERGY      -402.842363834426
Dispersion correction             ... done (  0.0 sec)
Dispersion correction           -0.032145383
FINAL SINGLE POINT ENERGY      -402.842364355988
Dispersion correction             ... done (  0.0 sec)
Dispersion correction           -0.032135489
FINAL SINGLE POINT ENERGY      -402.842364304481
Dispersion correction             ... done (  0.0 sec)
                    ***********************HURRAY********************

CARTESIAN COORDINATES (ANGSTROEM)
---------------------------------
  N     -2.866693    0.386326    0.196312
  C      1.371905    0.119903    0.047854
  C     -1.463463    0.298618    0.105470
  C      0.576179   -0.985388    0.393840
  C      0.712312    1.316103   -0.258897
  C     -0.813146   -0.906033    0.430435
  C     -0.681626    1.410029   -0.235508
  C      2.875544    0.009067    0.004427
  H      1.058741   -1.933822    0.648942
  H      1.298745    2.198910   -0.529402
  H     -1.413386   -1.761085    0.748160
  H     -1.167176    2.357849   -0.486363
  H      3.346653    0.988036   -0.170149
  H      3.278273   -0.395155    0.948158
  H      3.206631   -0.668273   -0.801788
  H     -3.256428    1.217229   -0.240097
  H     -3.349678   -0.445789   -0.135142
  O     -3.174898   -1.226932    2.574874
  H     -2.330714   -1.116426    3.032391
  H     -3.207339   -0.444413    1.993541

 Multiplicity           Mult            ....    1
 Number of Electrons    NEL             ....   68
 Basis Dimension        Dim             ....  181

ORBITAL ENERGIES
----------------

  NO   OCC          E(Eh)            E(eV)
   0   2.0000     -19.096032      -519.6294
   1   2.0000     -14.343665      -390.3110
   2   2.0000     -10.224624      -278.2262
   3   2.0000     -10.185094      -277.1505
   4   2.0000     -10.184685      -277.1394
   5   2.0000     -10.184083      -277.1230
   6   2.0000     -10.183753      -277.1140
   7   2.0000     -10.182735      -277.0863
   8   2.0000     -10.180162      -277.0163
   9   2.0000      -0.955754       -26.0074
  10   2.0000      -0.913322       -24.8528
  11   2.0000      -0.833428       -22.6787
  12   2.0000      -0.748007       -20.3543
  13   2.0000      -0.733988       -19.9728
  14   2.0000      -0.666291       -18.1307
  15   2.0000      -0.608642       -16.5620
  16   2.0000      -0.576911       -15.6985
  17   2.0000      -0.518491       -14.1089
  18   2.0000      -0.515719       -14.0334
  19   2.0000      -0.485337       -13.2067
  20   2.0000      -0.458014       -12.4632
  21   2.0000      -0.443593       -12.0708
  22   2.0000      -0.425075       -11.5669
  23   2.0000      -0.416162       -11.3244
  24   2.0000      -0.414416       -11.2768
  25   2.0000      -0.383732       -10.4419
  26   2.0000      -0.376854       -10.2547
  27   2.0000      -0.354765        -9.6536
  28   2.0000      -0.346130        -9.4187
  29   2.0000      -0.337307        -9.1786
  30   2.0000      -0.305701        -8.3185
  31   2.0000      -0.271575        -7.3899
  32   2.0000      -0.251570        -6.8456
  33   2.0000      -0.211363        -5.7515
  34   0.0000      -0.007192        -0.1957
  35   0.0000       0.006160         0.1676
  36   0.0000       0.051299         1.3959
  37   0.0000       0.068555         1.8655
  38   0.0000       0.081031         2.2050

MULLIKEN ATOMIC CHARGES
-----------------------
   0 N :   -0.112217
   1 C :   -0.030523
   2 C :    0.048447
   3 C :   -0.019676
   4 C :   -0.020624
   5 C :   -0.042161
   6 C :   -0.011877
   7 C :    0.082420
   8 H :   -0.033125
   9 H :   -0.034271
  10 H :   -0.036455
  11 H :   -0.047235
  12 H :    0.002369
  13 H :    0.019063
  14 H :    0.023499
  15 H :    0.104846
  16 H :    0.130218
  17 O :   -0.308151
  18 H :    0.149522
  19 H :    0.135930
Sum of atomic charges:    0.0000000

LOEWDIN ATOMIC CHARGES
----------------------
   0 N :   -0.032139
   1 C :   -0.047382
   2 C :    0.006795
   3 C :   -0.019709
   4 C :   -0.023071
   5 C :   -0.059421
   6 C :   -0.062367
   7 C :   -0.045941
   8 H :    0.024214
   9 H :    0.023421
  10 H :    0.020504
  11 H :    0.020682
  12 H :    0.025987
  13 H :    0.030961
  14 H :    0.032439
  15 H :    0.070461
  16 H :    0.077516
  17 O :   -0.156314
  18 H :    0.070749
  19 H :    0.042615

  Mayer bond orders larger than 0.100000
B(  0-N ,  2-C ) :   1.1260 B(  0-N , 15-H ) :   0.9491 B(  0-N , 16-H ) :   0.9429
B(  0-N , 19-H ) :   0.1116 B(  1-C ,  3-C ) :   1.3653 B(  1-C ,  4-C ) :   1.3991
B(  1-C ,  7-C ) :   1.0650 B(  2-C ,  5-C ) :   1.3479 B(  2-C ,  6-C ) :   1.3646
B(  3-C ,  5-C ) :   1.3843 B(  3-C ,  8-H ) :   0.9861 B(  4-C ,  6-C ) :   1.3639
B(  4-C ,  9-H ) :   0.9789 B(  5-C , 10-H ) :   0.9792 B(  6-C , 11-H ) :   0.9832
B(  7-C , 12-H ) :   0.9588 B(  7-C , 13-H ) :   0.9558 B(  7-C , 14-H ) :   0.9543
B( 17-O , 18-H ) :   1.0023 B( 17-O , 19-H ) :   0.9627

Dispersion correction           -0.032140835
FINAL SINGLE POINT ENERGY      -402.842364881473

DIPOLE MOMENT
-------------

Method             : SCF
Type of density    : Electron Density
Multiplicity       :   1
Irrep              :   0
Energy             :  -402.8102240460345911 Eh
Relativity type    :
Basis              : AO
                                X                 Y                 Z
Electronic contribution:     -2.444038880       0.692168960      -0.878076301
Nuclear contribution   :      2.725044042      -0.096435411       0.206662549
                        -----------------------------------------
Total Dipole Moment    :      0.281005162       0.595733549      -0.671413752
                        -----------------------------------------
Magnitude (a.u.)       :      0.940563016
Magnitude (Debye)      :      2.390721194

Rotational constants in cm-1:             0.098161             0.029794             0.024458
Rotational constants in MHz :          2942.797819           893.189633           733.224414

                             ****ORCA TERMINATED NORMALLY****
TOTAL RUN TIME: 0 days 0 hours 6 minutes 14 seconds 915 msec
