                         Program Version 6.0.1  -  RELEASE   -
|  1> ! B3LYP def2-SVP OPT TightSCF D3BJ
|  2>
|  3> %maxcore 2000
|  4>
|  5> %pal
|  6> nprocs 10
|  7> end
|  8>
|  9> * xyz 0 1
| 10>   N           2.55117149060326      4.44526066165801      0.82633110311114
| 11>   N          -4.20213401361592      3.78416613497714      0.50502576007923
| 12>   C           1.19304188962491      4.32804157971210      0.75822441747697
| 13>   C           0.54095220282082      3.22497236850657      1.36413180948534
| 14>   C           0.39808698290535      5.28293717769775      0.08031620823209
| 15>   C          -1.62482523417575      4.04614362206171      0.61887547041965
| 16>   C          -0.83659953092553      3.09175686110966      1.29431043021468
| 17>   C          -0.97998770551002      5.14319387823965      0.01261164115648
| 18>   C          -3.04614221590856      3.90231093284715      0.55254228529624
| 19>   H           1.15026834298402      2.48476820592375      1.88592785212972
| 20>   H           0.87972058044603      6.14110422137102     -0.39611225463595
| 21>   H          -1.32468612244834      2.23634340490772      1.76653742053056
| 22>   H          -1.57539468064350      5.89163274100634     -0.51429906938056
| 23>   H           3.01076389209504      5.26110528175429      0.44872694068681
| 24>   H           3.08376160728454      3.80553462864980      1.41071995019590
| 25>   O           3.61369499966699      2.38059683214597      2.61802289635609
| 26>   H           4.01312957777654      1.52942223408841      2.39396662216865
| 27>   H           3.37362793702008      2.29525923334279      3.55055051647689
| 28> *
| 29>
| 30>                          ****END OF INPUT****
 Total Charge           Charge          ....    0
 Multiplicity           Mult            ....    1
 Number of Electrons    NEL             ....   72
Dispersion correction           -0.030064122
FINAL SINGLE POINT ENERGY      -455.715039908680
Dispersion correction             ... done (  0.0 sec)
Dispersion correction           -0.030117618
FINAL SINGLE POINT ENERGY      -455.715302867000
Dispersion correction             ... done (  0.0 sec)
Dispersion correction           -0.030226638
FINAL SINGLE POINT ENERGY      -455.715419918773
Dispersion correction             ... done (  0.0 sec)
FINAL SINGLE POINT ENERGY      -455.715551299824
FINAL SINGLE POINT ENERGY      -455.715652681021
FINAL SINGLE POINT ENERGY      -455.715735203946
FINAL SINGLE POINT ENERGY      -455.715755725658
Dispersion correction             ... done (  0.0 sec)
Dispersion correction           -0.030285888
FINAL SINGLE POINT ENERGY      -455.715765225747
Dispersion correction             ... done (  0.0 sec)
Dispersion correction           -0.030286173
FINAL SINGLE POINT ENERGY      -455.715767376765
Dispersion correction             ... done (  0.0 sec)
                    ***********************HURRAY********************

CARTESIAN COORDINATES (ANGSTROEM)
---------------------------------
  N      2.575699    4.470332    0.844168
  N     -4.168214    3.731729    0.501975
  C      1.222501    4.338789    0.777765
  C      0.576206    3.238374    1.395313
  C      0.417029    5.276339    0.087057
  C     -1.594881    4.021584    0.631213
  C     -0.798727    3.085265    1.322058
  C     -0.958673    5.119126    0.016461
  C     -3.013942    3.861698    0.558123
  H      1.188902    2.513994    1.933951
  H      0.890954    6.134332   -0.397224
  H     -1.276773    2.230323    1.805005
  H     -1.561521    5.853751   -0.521438
  H      3.020548    5.298884    0.476623
  H      3.121533    3.827433    1.415452
  O      3.707402    2.393715    2.598604
  H      3.594211    1.491998    2.266482
  H      3.276197    2.386885    3.464822

 Multiplicity           Mult            ....    1
 Number of Electrons    NEL             ....   72
 Basis Dimension        Dim             ....  180

ORBITAL ENERGIES
----------------

  NO   OCC          E(Eh)            E(eV)
   0   2.0000     -19.174854      -521.7743
   1   2.0000     -14.336921      -390.1274
   2   2.0000     -14.300134      -389.1264
   3   2.0000     -10.240646      -278.6622
   4   2.0000     -10.206631      -277.7366
   5   2.0000     -10.202852      -277.6337
   6   2.0000     -10.201830      -277.6059
   7   2.0000     -10.201248      -277.5901
   8   2.0000     -10.188969      -277.2559
   9   2.0000     -10.188885      -277.2536
  10   2.0000      -1.031187       -28.0600
  11   2.0000      -0.917914       -24.9777
  12   2.0000      -0.873330       -23.7645
  13   2.0000      -0.837565       -22.7913
  14   2.0000      -0.746347       -20.3091
  15   2.0000      -0.739743       -20.1294
  16   2.0000      -0.626151       -17.0384
  17   2.0000      -0.619275       -16.8513
  18   2.0000      -0.563058       -15.3216
  19   2.0000      -0.545541       -14.8449
  20   2.0000      -0.526187       -14.3183
  21   2.0000      -0.520496       -14.1634
  22   2.0000      -0.450298       -12.2532
  23   2.0000      -0.443091       -12.0571
  24   2.0000      -0.428515       -11.6605
  25   2.0000      -0.417508       -11.3610
  26   2.0000      -0.400240       -10.8911
  27   2.0000      -0.397280       -10.8105
  28   2.0000      -0.359698        -9.7879
  29   2.0000      -0.355408        -9.6711
  30   2.0000      -0.340520        -9.2660
  31   2.0000      -0.334728        -9.1084
  32   2.0000      -0.311272        -8.4701
  33   2.0000      -0.298044        -8.1102
  34   2.0000      -0.263780        -7.1778
  35   2.0000      -0.205529        -5.5927
  36   0.0000      -0.020463        -0.5568
  37   0.0000      -0.013036        -0.3547
  38   0.0000       0.008623         0.2346
  39   0.0000       0.055528         1.5110
  40   0.0000       0.064117         1.7447

MULLIKEN ATOMIC CHARGES
-----------------------
   0 N :   -0.058712
   1 N :    0.033032
   2 C :    0.090079
   3 C :   -0.027045
   4 C :   -0.040223
   5 C :   -0.105460
   6 C :    0.045762
   7 C :    0.041078
   8 C :   -0.126006
   9 H :   -0.096098
  10 H :   -0.040052
  11 H :   -0.019360
  12 H :   -0.014713
  13 H :    0.107679
  14 H :    0.103742
  15 O :   -0.247886
  16 H :    0.177095
  17 H :    0.177090
Sum of atomic charges:    0.0000000

LOEWDIN ATOMIC CHARGES
----------------------
   0 N :   -0.005980
   1 N :   -0.095221
   2 C :    0.044861
   3 C :   -0.074030
   4 C :   -0.070774
   5 C :   -0.111045
   6 C :    0.013384
   7 C :    0.016413
   8 C :   -0.032655
   9 H :    0.007378
  10 H :    0.023744
  11 H :    0.033928
  12 H :    0.035820
  13 H :    0.072891
  14 H :    0.055270
  15 O :   -0.093475
  16 H :    0.089926
  17 H :    0.089566

  Mayer bond orders larger than 0.100000
B(  0-N ,  2-C ) :   1.3192 B(  0-N , 13-H ) :   0.9452 B(  0-N , 14-H ) :   0.9002
B(  1-N ,  8-C ) :   2.9979 B(  2-C ,  3-C ) :   1.2812 B(  2-C ,  4-C ) :   1.2771
B(  3-C ,  6-C ) :   1.4096 B(  3-C ,  9-H ) :   0.9673 B(  4-C ,  7-C ) :   1.4179
B(  4-C , 10-H ) :   0.9851 B(  5-C ,  6-C ) :   1.3415 B(  5-C ,  7-C ) :   1.3438
B(  5-C ,  8-C ) :   1.0852 B(  6-C , 11-H ) :   0.9844 B(  7-C , 12-H ) :   0.9840
B( 14-H , 15-O ) :   0.1268 B( 15-O , 16-H ) :   0.9876 B( 15-O , 17-H ) :   0.9872

Dispersion correction           -0.030283667
FINAL SINGLE POINT ENERGY      -455.715768003631

DIPOLE MOMENT
-------------

Method             : SCF
Type of density    : Electron Density
Multiplicity       :   1
Irrep              :   0
Energy             :  -455.6854843367606804 Eh
Relativity type    :
Basis              : AO
                                X                 Y                 Z
Electronic contribution:     -8.650849753       0.980287935      -1.965861578
Nuclear contribution   :     11.569684456      -1.379365732       2.737875903
                        -----------------------------------------
Total Dipole Moment    :      2.918834703      -0.399077797       0.772014325
                        -----------------------------------------
Magnitude (a.u.)       :      3.045466341
Magnitude (Debye)      :      7.740960254

Rotational constants in cm-1:             0.102468             0.020220             0.016938
Rotational constants in MHz :          3071.915069           606.185414           507.803170

                             ****ORCA TERMINATED NORMALLY****
TOTAL RUN TIME: 0 days 0 hours 1 minutes 45 seconds 410 msec
