                         Program Version 6.0.1  -  RELEASE   -
|  1> ! B3LYP def2-SVP OPT TightSCF D3BJ
|  2>
|  3> %maxcore 2000
|  4>
|  5> %pal
|  6> nprocs 10
|  7> end
|  8>
|  9> * xyz 0 1
| 10> N          2.73435        3.90104        0.79754
| 11> N         -4.05898        3.90123        0.79703
| 12> C          1.36786        3.90107        0.79729
| 13> C          0.64118        2.68833        0.79727
| 14> C          0.64125        5.11385        0.79724
| 15> C         -1.46586        3.90115        0.79717
| 16> C         -0.74562        2.69035        0.79721
| 17> C         -0.74556        5.11190        0.79719
| 18> C         -2.89648        3.90119        0.79709
| 19> H          1.18186        1.73826        0.79731
| 20> H          1.18197        6.06390        0.79727
| 21> H         -1.28903        1.74341        0.79718
| 22> H         -1.28892        6.05887        0.79715
| 23> H          3.25322        4.76669        0.79622
| 24> H          3.25318        3.03536        0.79624
| 25> O          2.63953        3.50567        2.05682
| 26> H          3.21608        2.93483        2.58278
| 27> H          2.59842        4.31745        2.58041
| 28> *
| 29>
| 30>                          ****END OF INPUT****
 Total Charge           Charge          ....    0
 Multiplicity           Mult            ....    1
 Number of Electrons    NEL             ....   72
 Basis Dimension        Dim             ....  180

ORBITAL ENERGIES
----------------

  NO   OCC          E(Eh)            E(eV)
   0   2.0000     -19.280709      -524.6548
   1   2.0000     -14.505257      -394.7081
   2   2.0000     -14.287275      -388.7765
   3   2.0000     -10.246191      -278.8130
   4   2.0000     -10.199970      -277.5553
   5   2.0000     -10.199782      -277.5502
   6   2.0000     -10.196071      -277.4492
   7   2.0000     -10.195140      -277.4239
   8   2.0000     -10.191411      -277.3224
   9   2.0000     -10.190966      -277.3103
  10   2.0000      -1.301316       -35.4106
  11   2.0000      -0.985490       -26.8165
  12   2.0000      -0.866909       -23.5898
  13   2.0000      -0.849949       -23.1283
  14   2.0000      -0.786521       -21.4023
  15   2.0000      -0.766105       -20.8468
  16   2.0000      -0.735185       -20.0054
  17   2.0000      -0.712656       -19.3923
  18   2.0000      -0.665915       -18.1205
  19   2.0000      -0.610401       -16.6098
  20   2.0000      -0.571739       -15.5578
  21   2.0000      -0.543574       -14.7914
  22   2.0000      -0.541707       -14.7406
  23   2.0000      -0.483968       -13.1694
  24   2.0000      -0.457851       -12.4588
  25   2.0000      -0.446387       -12.1468
  26   2.0000      -0.430530       -11.7153
  27   2.0000      -0.405292       -11.0286
  28   2.0000      -0.379316       -10.3217
  29   2.0000      -0.359653        -9.7866
  30   2.0000      -0.324467        -8.8292
  31   2.0000      -0.322704        -8.7812
  32   2.0000      -0.302031        -8.2187
  33   2.0000      -0.266010        -7.2385
  34   2.0000      -0.246074        -6.6960
  35   2.0000      -0.114792        -3.1236
  36   0.0000      -0.038509        -1.0479
  37   0.0000      -0.015889        -0.4324
  38   0.0000      -0.005367        -0.1461
  39   0.0000       0.021940         0.5970
  40   0.0000       0.050744         1.3808

MULLIKEN ATOMIC CHARGES
-----------------------
   0 N :    0.239294
   1 N :    0.022783
   2 C :   -0.026491
   3 C :   -0.002539
   4 C :   -0.001169
   5 C :   -0.120074
   6 C :    0.046768
   7 C :    0.031063
   8 C :   -0.140823
   9 H :   -0.044905
  10 H :   -0.051962
  11 H :   -0.016324
  12 H :   -0.020045
  13 H :    0.103424
  14 H :   -0.055687
  15 O :    0.250170
  16 H :   -0.189747
  17 H :   -0.023736
Sum of atomic charges:    0.0000000

LOEWDIN ATOMIC CHARGES
----------------------
   0 N :    0.287845
   1 N :   -0.110936
   2 C :   -0.051366
   3 C :   -0.090153
   4 C :   -0.079738
   5 C :   -0.131443
   6 C :    0.021226
   7 C :   -0.001920
   8 C :   -0.044441
   9 H :    0.018165
  10 H :    0.017064
  11 H :    0.037100
  12 H :    0.034741
  13 H :    0.069277
  14 H :   -0.022982
  15 O :    0.263261
  16 H :   -0.176446
  17 H :   -0.039252

  Mayer bond orders larger than 0.100000
B(  0-N ,  2-C ) :   1.1561 B(  0-N , 13-H ) :   0.8879 B(  0-N , 14-H ) :   0.7886
B(  0-N , 15-O ) :   0.4927 B(  0-N , 16-H ) :   0.1430 B(  1-N ,  8-C ) :   2.9785
B(  2-C ,  3-C ) :   1.2065 B(  2-C ,  4-C ) :   1.2889 B(  2-C , 16-H ) :   0.1032
B(  3-C ,  6-C ) :   1.4709 B(  3-C ,  9-H ) :   0.9715 B(  4-C ,  7-C ) :   1.4574
B(  4-C , 10-H ) :   0.9777 B(  5-C ,  6-C ) :   1.3152 B(  5-C ,  7-C ) :   1.2798
B(  5-C ,  8-C ) :   1.1107 B(  6-C , 11-H ) :   0.9801 B(  7-C , 12-H ) :   0.9786
B( 14-H , 16-H ) :   0.1649 B( 14-H , 17-H ) :   0.1062 B( 15-O , 16-H ) :   0.6065
B( 15-O , 17-H ) :   0.7866 B( 16-H , 17-H ) :   0.1791

Dispersion correction           -0.032684596
FINAL SINGLE POINT ENERGY      -455.253816499532
Dispersion correction             ... done (  0.0 sec)
Dispersion correction           -0.032724924
FINAL SINGLE POINT ENERGY      -455.348347902901
Dispersion correction             ... done (  0.0 sec)
Dispersion correction           -0.032770847
FINAL SINGLE POINT ENERGY      -455.437552777280
Dispersion correction             ... done (  0.0 sec)
FINAL SINGLE POINT ENERGY      -455.536146342164
FINAL SINGLE POINT ENERGY      -455.611522729010
FINAL SINGLE POINT ENERGY      -455.652369504650
FINAL SINGLE POINT ENERGY      -455.670347079925
FINAL SINGLE POINT ENERGY      -455.678834138278
FINAL SINGLE POINT ENERGY      -455.687938754772
FINAL SINGLE POINT ENERGY      -455.695917426992
FINAL SINGLE POINT ENERGY      -455.714616366959
FINAL SINGLE POINT ENERGY      -455.714704696853
FINAL SINGLE POINT ENERGY      -455.714801759612
FINAL SINGLE POINT ENERGY      -455.714901198359
FINAL SINGLE POINT ENERGY      -455.714949426668
FINAL SINGLE POINT ENERGY      -455.714965559181
FINAL SINGLE POINT ENERGY      -455.714904354322
Dispersion correction           -0.030072651
FINAL SINGLE POINT ENERGY      -455.714987343462
Dispersion correction             ... done (  0.0 sec)
Dispersion correction           -0.030071250
FINAL SINGLE POINT ENERGY      -455.714996879148
Dispersion correction             ... done (  0.0 sec)

CARTESIAN COORDINATES (ANGSTROEM)
---------------------------------
  N      2.551171    4.445261    0.826331
  N     -4.202134    3.784166    0.505026
  C      1.193042    4.328042    0.758224
  C      0.540952    3.224972    1.364132
  C      0.398087    5.282937    0.080316
  C     -1.624825    4.046144    0.618875
  C     -0.836600    3.091757    1.294310
  C     -0.979988    5.143194    0.012612
  C     -3.046142    3.902311    0.552542
  H      1.150268    2.484768    1.885928
  H      0.879721    6.141104   -0.396112
  H     -1.324686    2.236343    1.766537
  H     -1.575395    5.891633   -0.514299
  H      3.010764    5.261105    0.448727
  H      3.083762    3.805535    1.410720
  O      3.613695    2.380597    2.618023
  H      4.013130    1.529422    2.393967
  H      3.373628    2.295259    3.550551

Dispersion correction           -0.030064122
FINAL SINGLE POINT ENERGY      -455.715039891955
Dispersion correction             ... done (  0.0 sec)
                             ****ORCA TERMINATED NORMALLY****
TOTAL RUN TIME: 0 days 0 hours 11 minutes 3 seconds 103 msec
