                         Program Version 6.0.1  -  RELEASE   -
|  1> ! wB97X-D3 def2-TZVPP TightSCF RIJCOSX SP
|  2>
|  3> %pal
|  4> nprocs 28
|  5> end
|  6>
|  7> %maxcore 5000
|  8>
|  9> * xyz 0 1
| 10>   C           3.34804850443552     -1.94519700693359      0.41193859737490
| 11>   C           3.64050351924908     -0.52430840409676      0.44754504070177
| 12>   C           3.22095987737777      0.24357344510280      1.52656927828692
| 13>   C           2.64544031606440     -2.53675644016349      1.45453459090499
| 14>   C           3.04932329758835     -2.30944168404381     -0.96297830114166
| 15>   C           3.50909185923282     -0.01021486997194     -0.90560241010034
| 16>   C           2.66518201095643      1.56474452241886      1.30439990421887
| 17>   C           2.47515361729242     -0.37310151315687      2.60578697296284
| 18>   C           1.61381463203490     -3.51810952007566      1.17021137748280
| 19>   C           2.19709317639264     -1.73033029999688      2.57499139588659
| 20>   C           2.06457473189463     -3.24870129414740     -1.23339111963203
| 21>   C           3.14820122068406     -1.11070415770565     -1.77577681592045
| 22>   C           2.94669931383726      1.23947597652851     -1.11374261474855
| 23>   C           1.56422758408481      1.76209445728660      2.22753769300385
| 24>   C           2.52832289511476      2.03316568146677      0.01092300887555
| 25>   C           1.44844935920696      0.56673724604612      3.02187741613803
| 26>   C           1.33260210990602     -3.86877552276736     -0.14291683593475
| 27>   C           0.52923996148873     -3.31906909792850      2.11670753949193
| 28>   C           0.88530778830425     -2.20726395287049      2.97886872188417
| 29>   C           1.13835277574185     -3.03428281936796     -2.33140120389719
| 30>   C           2.25319077947524     -0.89505450769759     -2.81330079218302
| 31>   C           1.99474268265988      1.47504055144274     -2.17938478609283
| 32>   C           0.45655657651362      2.51870468017240      1.85444199585363
| 33>   C           1.40155166883642      2.84626825957115     -0.36296603886525
| 34>   C           0.19364110019036      0.12212764639485      3.38714902803138
| 35>   C          -0.04440625007592     -4.04372325876867     -0.56941489477482
| 36>   C          -0.78711524220448     -3.48612913486323      1.70886968028302
| 37>   C          -0.08877600738520     -1.30342919597774      3.38235986047557
| 38>   C          -0.16338742820965     -3.53202875791099     -1.92305326025842
| 39>   C           1.23054507025853     -1.88274043217073     -3.10318540831751
| 40>   C           1.67280139779444      0.42261546421606     -3.02025732719935
| 41>   C           0.99284773408525      2.44448235287989     -1.72125939576899
| 42>   C           0.56242628049953      3.31518206681004      0.63554347133556
| 43>   C          -0.89656093823497      2.01044115475975      2.16727171172380
| 44>   C          -0.98646023449681      0.84212350682639      2.94066593003661
| 45>   C          -1.08061335635639     -3.86089771785327      0.33582554632894
| 46>   C          -1.80667295933887     -2.55048346780055      2.14607358815329
| 47>   C          -1.45983074241186     -1.47782166562624      2.95785158981752
| 48>   C          -1.31516291901420     -2.86441773574601     -2.31407267127870
| 49>   C           0.02656353009115     -1.17692692818068     -3.50216304377983
| 50>   C           0.30341516147634      0.24952840739233     -3.44456665831815
| 51>   C          -0.33861929947559      2.28106666013973     -2.13622507876865
| 52>   C          -1.50930453846137      3.05212362303668     -0.00157610498269
| 53>   C          -1.91678930624335      2.21299068087216      1.11882075824323
| 54>   C          -2.01451840085355     -0.15926568574500      2.70535946584011
| 55>   C          -2.28693327099672     -3.16426987137622     -0.07289570302954
| 56>   C          -2.73760599471875     -2.35863732202371      1.04776322087898
| 57>   C          -2.40244514706193     -2.67660450713446     -1.36868267478071
| 58>   C          -1.21638599112687     -1.66516085416299     -3.12683982168588
| 59>   C          -0.66290969912817      1.13990696643767     -3.00328364724752
| 60>   C          -1.51771229488429      2.48028407599623     -1.26605002478021
| 61>   C          -2.83498393361833      1.20135872420131      0.86399863718370
| 62>   C          -2.91180823813571      0.01061087269237      1.67120064392769
| 63>   C          -3.28645907075885     -1.10626427260533      0.82225661218685
| 64>   C          -2.98034256848395     -1.36578658529691     -1.60252990675569
| 65>   C          -2.23990248376811     -0.74078635820907     -2.68529120686691
| 66>   C          -1.96141151314433      0.61698036833477     -2.63338469839287
| 67>   C          -2.43749322885078      1.40467556739865     -1.52816799891324
| 68>   C          -3.15577021203103      0.82445957839026     -0.49845805399059
| 69>   C          -3.42126850079989     -0.60085688923637     -0.53020218152688
| 70>   H           1.01329409011614      5.34132406282301      4.30395558943365
| 71>   C           0.00156739839484      5.77035702293343      4.34409264491051
| 72>   H          -0.07238574528875      6.40133900191094      5.24179841778758
| 73>   H           0.42258215407076      7.43318829045760      3.00509103958484
| 74>   C          -0.27936822124758      6.59526541253677      3.10540446975576
| 75>   O          -0.07757543445639      5.81350574187095      1.91905310495681
| 76>   H          -0.72581276983927      4.95161121429238      4.44088940723858
| 77>   C          -1.06379970700738      5.00848042914969      1.54056507793129
| 78>   C          -0.60366636606848      4.18952932199605      0.32371881280598
| 79>   O          -2.14122932599482      4.93886670132572      2.05980022907743
| 80>   H          -1.30777636276340      6.98460264477705      3.10398529283496
| 81>   C          -0.39187316824964      5.19469450536460     -0.81634596780634
| 82>   H          -3.62292677217363      6.42681289912368     -2.61792360913469
| 83>   O          -1.55276626996270      5.76807755090165     -1.11073644702511
| 84>   H          -1.13730933126203      6.30313723547912     -3.06264685563800
| 85>   O           0.65257781774354      5.45567630082662     -1.34070264158112
| 86>   C          -1.54177941330081      6.75942189156959     -2.14579186714807
| 87>   C          -2.95723200459695      7.25162255228719     -2.32655833565137
| 88>   H          -2.99071383293230      8.01904750994273     -3.11280725800038
| 89>   H          -3.34136609459692      7.69097061889314     -1.39493315469239
| 90>   H          -0.85183140308268      7.56594828633510     -1.85203054721983
| 91> *
| 92>
| 93>                          ****END OF INPUT****

CARTESIAN COORDINATES (ANGSTROEM)
---------------------------------
  C      3.348049   -1.945197    0.411939
  C      3.640504   -0.524308    0.447545
  C      3.220960    0.243573    1.526569
  C      2.645440   -2.536756    1.454535
  C      3.049323   -2.309442   -0.962978
  C      3.509092   -0.010215   -0.905602
  C      2.665182    1.564745    1.304400
  C      2.475154   -0.373102    2.605787
  C      1.613815   -3.518110    1.170211
  C      2.197093   -1.730330    2.574991
  C      2.064575   -3.248701   -1.233391
  C      3.148201   -1.110704   -1.775777
  C      2.946699    1.239476   -1.113743
  C      1.564228    1.762094    2.227538
  C      2.528323    2.033166    0.010923
  C      1.448449    0.566737    3.021877
  C      1.332602   -3.868776   -0.142917
  C      0.529240   -3.319069    2.116708
  C      0.885308   -2.207264    2.978869
  C      1.138353   -3.034283   -2.331401
  C      2.253191   -0.895055   -2.813301
  C      1.994743    1.475041   -2.179385
  C      0.456557    2.518705    1.854442
  C      1.401552    2.846268   -0.362966
  C      0.193641    0.122128    3.387149
  C     -0.044406   -4.043723   -0.569415
  C     -0.787115   -3.486129    1.708870
  C     -0.088776   -1.303429    3.382360
  C     -0.163387   -3.532029   -1.923053
  C      1.230545   -1.882740   -3.103185
  C      1.672801    0.422615   -3.020257
  C      0.992848    2.444482   -1.721259
  C      0.562426    3.315182    0.635543
  C     -0.896561    2.010441    2.167272
  C     -0.986460    0.842124    2.940666
  C     -1.080613   -3.860898    0.335826
  C     -1.806673   -2.550483    2.146074
  C     -1.459831   -1.477822    2.957852
  C     -1.315163   -2.864418   -2.314073
  C      0.026564   -1.176927   -3.502163
  C      0.303415    0.249528   -3.444567
  C     -0.338619    2.281067   -2.136225
  C     -1.509305    3.052124   -0.001576
  C     -1.916789    2.212991    1.118821
  C     -2.014518   -0.159266    2.705359
  C     -2.286933   -3.164270   -0.072896
  C     -2.737606   -2.358637    1.047763
  C     -2.402445   -2.676605   -1.368683
  C     -1.216386   -1.665161   -3.126840
  C     -0.662910    1.139907   -3.003284
  C     -1.517712    2.480284   -1.266050
  C     -2.834984    1.201359    0.863999
  C     -2.911808    0.010611    1.671201
  C     -3.286459   -1.106264    0.822257
  C     -2.980343   -1.365787   -1.602530
  C     -2.239902   -0.740786   -2.685291
  C     -1.961412    0.616980   -2.633385
  C     -2.437493    1.404676   -1.528168
  C     -3.155770    0.824460   -0.498458
  C     -3.421269   -0.600857   -0.530202
  H      1.013294    5.341324    4.303956
  C      0.001567    5.770357    4.344093
  H     -0.072386    6.401339    5.241798
  H      0.422582    7.433188    3.005091
  C     -0.279368    6.595265    3.105404
  O     -0.077575    5.813506    1.919053
  H     -0.725813    4.951611    4.440889
  C     -1.063800    5.008480    1.540565
  C     -0.603666    4.189529    0.323719
  O     -2.141229    4.938867    2.059800
  H     -1.307776    6.984603    3.103985
  C     -0.391873    5.194695   -0.816346
  H     -3.622927    6.426813   -2.617924
  O     -1.552766    5.768078   -1.110736
  H     -1.137309    6.303137   -3.062647
  O      0.652578    5.455676   -1.340703
  C     -1.541779    6.759422   -2.145792
  C     -2.957232    7.251623   -2.326558
  H     -2.990714    8.019048   -3.112807
  H     -3.341366    7.690971   -1.394933
  H     -0.851831    7.565948   -1.852031

 Total Charge           Charge          ....    0
 Multiplicity           Mult            ....    1
 Number of Electrons    NEL             ....  444
 Basis Dimension        Dim             .... 2341

ORBITAL ENERGIES
----------------

  NO   OCC          E(Eh)            E(eV)
   0   2.0000     -19.299249      -525.1593
   1   2.0000     -19.298465      -525.1379
   2   2.0000     -19.240629      -523.5641
   3   2.0000     -19.239738      -523.5399
   4   2.0000     -10.433881      -283.9203
   5   2.0000     -10.433396      -283.9071
   6   2.0000     -10.351143      -281.6689
   7   2.0000     -10.350657      -281.6557
   8   2.0000     -10.350464      -281.6504
   9   2.0000     -10.346768      -281.5499
  10   2.0000     -10.345653      -281.5195
  11   2.0000     -10.345021      -281.5023
  12   2.0000     -10.342019      -281.4206
  13   2.0000     -10.341151      -281.3970
  14   2.0000     -10.339355      -281.3481
  15   2.0000     -10.338541      -281.3260
  16   2.0000     -10.331094      -281.1234
  17   2.0000     -10.330972      -281.1200
  18   2.0000     -10.330644      -281.1111
  19   2.0000     -10.329892      -281.0906
  20   2.0000     -10.329805      -281.0883
  21   2.0000     -10.329728      -281.0862
  22   2.0000     -10.329680      -281.0849
  23   2.0000     -10.329644      -281.0839
  24   2.0000     -10.329605      -281.0828
  25   2.0000     -10.329524      -281.0806
  26   2.0000     -10.329448      -281.0786
  27   2.0000     -10.329380      -281.0767
  28   2.0000     -10.329322      -281.0751
  29   2.0000     -10.329272      -281.0738
  30   2.0000     -10.329220      -281.0724
  31   2.0000     -10.329144      -281.0703
  32   2.0000     -10.329096      -281.0690
  33   2.0000     -10.329054      -281.0678
  34   2.0000     -10.328998      -281.0663
  35   2.0000     -10.328911      -281.0640
  36   2.0000     -10.328901      -281.0637
  37   2.0000     -10.328857      -281.0625
  38   2.0000     -10.328845      -281.0622
  39   2.0000     -10.328741      -281.0593
  40   2.0000     -10.328701      -281.0583
  41   2.0000     -10.328667      -281.0573
  42   2.0000     -10.328647      -281.0568
  43   2.0000     -10.328601      -281.0555
  44   2.0000     -10.328537      -281.0538
  45   2.0000     -10.328521      -281.0533
  46   2.0000     -10.328427      -281.0508
  47   2.0000     -10.328289      -281.0470
  48   2.0000     -10.328163      -281.0436
  49   2.0000     -10.328159      -281.0435
  50   2.0000     -10.328098      -281.0418
  51   2.0000     -10.327963      -281.0382
  52   2.0000     -10.327898      -281.0364
  53   2.0000     -10.327836      -281.0347
  54   2.0000     -10.327819      -281.0342
  55   2.0000     -10.327650      -281.0296
  56   2.0000     -10.326875      -281.0086
  57   2.0000     -10.326813      -281.0069
  58   2.0000     -10.326748      -281.0051
  59   2.0000     -10.326446      -280.9969
  60   2.0000     -10.326444      -280.9968
  61   2.0000     -10.326398      -280.9956
  62   2.0000     -10.325945      -280.9832
  63   2.0000     -10.325934      -280.9829
  64   2.0000     -10.325774      -280.9786
  65   2.0000     -10.325089      -280.9600
  66   2.0000     -10.324018      -280.9308
  67   2.0000     -10.323314      -280.9117
  68   2.0000     -10.322653      -280.8937
  69   2.0000     -10.286853      -279.9195
  70   2.0000     -10.284921      -279.8669
  71   2.0000      -1.258105       -34.2348
  72   2.0000      -1.249287       -33.9948
  73   2.0000      -1.162928       -31.6449
  74   2.0000      -1.160573       -31.5808
  75   2.0000      -1.098987       -29.9049
  76   2.0000      -1.080273       -29.3957
  77   2.0000      -1.078519       -29.3480
  78   2.0000      -1.078416       -29.3452
  79   2.0000      -1.044747       -28.4290
  80   2.0000      -1.042537       -28.3689
  81   2.0000      -1.040455       -28.3122
  82   2.0000      -1.039904       -28.2972
  83   2.0000      -1.037335       -28.2273
  84   2.0000      -1.005775       -27.3685
  85   2.0000      -0.999156       -27.1884
  86   2.0000      -0.997867       -27.1534
  87   2.0000      -0.973307       -26.4850
  88   2.0000      -0.972762       -26.4702
  89   2.0000      -0.966733       -26.3061
  90   2.0000      -0.966439       -26.2981
  91   2.0000      -0.943835       -25.6831
  92   2.0000      -0.921413       -25.0729
  93   2.0000      -0.913907       -24.8687
  94   2.0000      -0.913229       -24.8502
  95   2.0000      -0.911608       -24.8061
  96   2.0000      -0.911170       -24.7942
  97   2.0000      -0.906431       -24.6652
  98   2.0000      -0.901284       -24.5252
  99   2.0000      -0.899708       -24.4823
 100   2.0000      -0.896856       -24.4047
 101   2.0000      -0.896087       -24.3838
 102   2.0000      -0.866615       -23.5818
 103   2.0000      -0.847657       -23.0659
 104   2.0000      -0.839159       -22.8347
 105   2.0000      -0.836816       -22.7709
 106   2.0000      -0.835694       -22.7404
 107   2.0000      -0.833089       -22.6695
 108   2.0000      -0.823729       -22.4148
 109   2.0000      -0.821146       -22.3445
 110   2.0000      -0.814754       -22.1706
 111   2.0000      -0.793827       -21.6011
 112   2.0000      -0.784612       -21.3504
 113   2.0000      -0.782801       -21.3011
 114   2.0000      -0.776298       -21.1242
 115   2.0000      -0.760846       -20.7037
 116   2.0000      -0.753076       -20.4922
 117   2.0000      -0.742530       -20.2053
 118   2.0000      -0.740225       -20.1426
 119   2.0000      -0.739566       -20.1246
 120   2.0000      -0.738560       -20.0972
 121   2.0000      -0.737135       -20.0585
 122   2.0000      -0.732963       -19.9449
 123   2.0000      -0.724004       -19.7011
 124   2.0000      -0.713460       -19.4142
 125   2.0000      -0.694874       -18.9085
 126   2.0000      -0.686598       -18.6833
 127   2.0000      -0.677247       -18.4288
 128   2.0000      -0.670089       -18.2340
 129   2.0000      -0.668070       -18.1791
 130   2.0000      -0.664449       -18.0806
 131   2.0000      -0.655446       -17.8356
 132   2.0000      -0.650931       -17.7127
 133   2.0000      -0.645397       -17.5621
 134   2.0000      -0.643109       -17.4999
 135   2.0000      -0.639865       -17.4116
 136   2.0000      -0.638359       -17.3706
 137   2.0000      -0.627040       -17.0626
 138   2.0000      -0.625006       -17.0073
 139   2.0000      -0.620770       -16.8920
 140   2.0000      -0.618488       -16.8299
 141   2.0000      -0.610666       -16.6171
 142   2.0000      -0.606212       -16.4959
 143   2.0000      -0.601242       -16.3606
 144   2.0000      -0.600439       -16.3388
 145   2.0000      -0.597353       -16.2548
 146   2.0000      -0.594128       -16.1670
 147   2.0000      -0.590861       -16.0782
 148   2.0000      -0.581592       -15.8259
 149   2.0000      -0.578004       -15.7283
 150   2.0000      -0.575968       -15.6729
 151   2.0000      -0.574892       -15.6436
 152   2.0000      -0.571393       -15.5484
 153   2.0000      -0.570727       -15.5303
 154   2.0000      -0.567505       -15.4426
 155   2.0000      -0.566140       -15.4055
 156   2.0000      -0.556070       -15.1314
 157   2.0000      -0.555098       -15.1050
 158   2.0000      -0.552790       -15.0422
 159   2.0000      -0.548869       -14.9355
 160   2.0000      -0.547710       -14.9039
 161   2.0000      -0.546181       -14.8624
 162   2.0000      -0.540434       -14.7060
 163   2.0000      -0.537514       -14.6265
 164   2.0000      -0.535055       -14.5596
 165   2.0000      -0.534418       -14.5422
 166   2.0000      -0.531835       -14.4720
 167   2.0000      -0.529796       -14.4165
 168   2.0000      -0.525957       -14.3120
 169   2.0000      -0.525711       -14.3053
 170   2.0000      -0.524313       -14.2673
 171   2.0000      -0.523135       -14.2352
 172   2.0000      -0.520536       -14.1645
 173   2.0000      -0.520063       -14.1516
 174   2.0000      -0.515450       -14.0261
 175   2.0000      -0.512867       -13.9558
 176   2.0000      -0.509333       -13.8596
 177   2.0000      -0.506601       -13.7853
 178   2.0000      -0.504468       -13.7273
 179   2.0000      -0.501924       -13.6580
 180   2.0000      -0.500998       -13.6329
 181   2.0000      -0.498259       -13.5583
 182   2.0000      -0.492052       -13.3894
 183   2.0000      -0.483102       -13.1459
 184   2.0000      -0.471472       -12.8294
 185   2.0000      -0.470554       -12.8044
 186   2.0000      -0.465169       -12.6579
 187   2.0000      -0.463709       -12.6182
 188   2.0000      -0.460416       -12.5286
 189   2.0000      -0.459648       -12.5077
 190   2.0000      -0.455912       -12.4060
 191   2.0000      -0.455349       -12.3907
 192   2.0000      -0.454469       -12.3667
 193   2.0000      -0.452012       -12.2999
 194   2.0000      -0.449745       -12.2382
 195   2.0000      -0.447243       -12.1701
 196   2.0000      -0.446740       -12.1564
 197   2.0000      -0.444829       -12.1044
 198   2.0000      -0.442688       -12.0462
 199   2.0000      -0.442587       -12.0434
 200   2.0000      -0.441776       -12.0213
 201   2.0000      -0.440409       -11.9841
 202   2.0000      -0.435095       -11.8395
 203   2.0000      -0.431644       -11.7456
 204   2.0000      -0.421044       -11.4572
 205   2.0000      -0.418961       -11.4005
 206   2.0000      -0.408662       -11.1203
 207   2.0000      -0.387489       -10.5441
 208   2.0000      -0.361785        -9.8447
 209   2.0000      -0.360168        -9.8007
 210   2.0000      -0.359879        -9.7928
 211   2.0000      -0.358878        -9.7656
 212   2.0000      -0.354716        -9.6523
 213   2.0000      -0.353309        -9.6140
 214   2.0000      -0.352914        -9.6033
 215   2.0000      -0.350268        -9.5313
 216   2.0000      -0.346417        -9.4265
 217   2.0000      -0.298297        -8.1171
 218   2.0000      -0.298111        -8.1120
 219   2.0000      -0.297908        -8.1065
 220   2.0000      -0.297234        -8.0881
 221   2.0000      -0.296832        -8.0772
 222   0.0000      -0.070453        -1.9171
 223   0.0000      -0.069024        -1.8782
 224   0.0000      -0.068473        -1.8632
 225   0.0000      -0.019160        -0.5214
 226   0.0000      -0.017409        -0.4737

MULLIKEN ATOMIC CHARGES
-----------------------
   0 C :   -0.008721
   1 C :   -0.020308
   2 C :    0.002891
   3 C :    0.004122
   4 C :   -0.003913
   5 C :   -0.041186
   6 C :    0.055831
   7 C :   -0.015454
   8 C :   -0.009293
   9 C :    0.011606
  10 C :   -0.001689
  11 C :    0.040277
  12 C :    0.126405
  13 C :   -0.067501
  14 C :   -0.151766
  15 C :    0.007252
  16 C :    0.001541
  17 C :    0.005417
  18 C :   -0.021553
  19 C :   -0.010407
  20 C :   -0.060216
  21 C :   -0.150917
  22 C :   -0.136149
  23 C :   -0.157428
  24 C :    0.009308
  25 C :    0.002024
  26 C :   -0.006283
  27 C :    0.013775
  28 C :    0.001917
  29 C :    0.029882
  30 C :    0.036784
  31 C :    0.134863
  32 C :    0.278771
  33 C :    0.100592
  34 C :   -0.099113
  35 C :   -0.001701
  36 C :   -0.002851
  37 C :   -0.011087
  38 C :   -0.010646
  39 C :   -0.063060
  40 C :    0.048017
  41 C :    0.107842
  42 C :    0.253875
  43 C :   -0.090285
  44 C :    0.034185
  45 C :    0.001690
  46 C :    0.004902
  47 C :   -0.008376
  48 C :    0.044725
  49 C :   -0.159198
  50 C :   -0.160246
  51 C :   -0.090562
  52 C :   -0.016613
  53 C :   -0.006461
  54 C :   -0.014819
  55 C :   -0.038123
  56 C :    0.122142
  57 C :   -0.148431
  58 C :    0.057210
  59 C :   -0.003863
  60 H :    0.087118
  61 C :   -0.245574
  62 H :    0.092205
  63 H :    0.107105
  64 C :   -0.002373
  65 O :   -0.255436
  66 H :    0.100151
  67 C :    0.196645
  68 C :    0.544973
  69 O :   -0.306395
  70 H :    0.094333
  71 C :    0.172067
  72 H :    0.087190
  73 O :   -0.256752
  74 H :    0.097029
  75 O :   -0.301447
  76 C :    0.006200
  77 C :   -0.228466
  78 H :    0.082104
  79 H :    0.085897
  80 H :    0.093796
Sum of atomic charges:    0.0000000

LOEWDIN ATOMIC CHARGES
----------------------
   0 C :    0.000273
   1 C :   -0.000311
   2 C :    0.000105
   3 C :   -0.000847
   4 C :   -0.000513
   5 C :    0.000463
   6 C :    0.000304
   7 C :    0.000571
   8 C :   -0.000639
   9 C :   -0.001218
  10 C :   -0.001096
  11 C :   -0.002539
  12 C :   -0.001067
  13 C :   -0.006271
  14 C :   -0.006444
  15 C :   -0.007800
  16 C :   -0.000853
  17 C :   -0.001201
  18 C :    0.000836
  19 C :    0.000396
  20 C :    0.001208
  21 C :    0.002824
  22 C :   -0.002121
  23 C :    0.003854
  24 C :   -0.003844
  25 C :   -0.000779
  26 C :   -0.000592
  27 C :   -0.000706
  28 C :   -0.001468
  29 C :    0.000012
  30 C :   -0.004992
  31 C :    0.014267
  32 C :    0.023653
  33 C :    0.007678
  34 C :    0.004116
  35 C :   -0.000500
  36 C :    0.000293
  37 C :   -0.000419
  38 C :   -0.000419
  39 C :    0.000935
  40 C :   -0.005871
  41 C :    0.005836
  42 C :    0.027063
  43 C :    0.009498
  44 C :   -0.004032
  45 C :   -0.000613
  46 C :   -0.001126
  47 C :    0.000092
  48 C :   -0.002915
  49 C :   -0.000147
  50 C :   -0.007073
  51 C :   -0.002915
  52 C :   -0.005249
  53 C :    0.001400
  54 C :   -0.000723
  55 C :   -0.000383
  56 C :   -0.003944
  57 C :   -0.012102
  58 C :    0.001474
  59 C :    0.000762
  60 H :    0.018634
  61 C :   -0.005634
  62 H :    0.021432
  63 H :    0.020266
  64 C :   -0.087697
  65 O :    0.327036
  66 H :    0.020757
  67 C :   -0.433419
  68 C :   -0.131482
  69 O :    0.155996
  70 H :    0.018594
  71 C :   -0.428671
  72 H :    0.019839
  73 O :    0.326185
  74 H :    0.021362
  75 O :    0.159535
  76 C :   -0.092289
  77 C :   -0.005308
  78 H :    0.021051
  79 H :    0.019270
  80 H :    0.020362

  Mayer bond orders larger than 0.100000
B(  0-C ,  1-C ) :   1.1829 B(  0-C ,  3-C ) :   1.4420 B(  0-C ,  4-C ) :   1.1715
B(  1-C ,  2-C ) :   1.4414 B(  1-C ,  5-C ) :   1.1773 B(  2-C ,  6-C ) :   1.1440
B(  2-C ,  7-C ) :   1.1878 B(  3-C ,  8-C ) :   1.1772 B(  3-C ,  9-C ) :   1.1791
B(  4-C , 10-C ) :   1.4444 B(  4-C , 11-C ) :   1.1756 B(  5-C , 11-C ) :   1.1700
B(  5-C , 12-C ) :   1.4465 B(  6-C , 13-C ) :   1.1925 B(  6-C , 14-C ) :   1.4713
B(  7-C ,  9-C ) :   1.4471 B(  7-C , 15-C ) :   1.1715 B(  8-C , 16-C ) :   1.4472
B(  8-C , 17-C ) :   1.1707 B(  9-C , 18-C ) :   1.1619 B( 10-C , 16-C ) :   1.1747
B( 10-C , 19-C ) :   1.1767 B( 11-C , 20-C ) :   1.4440 B( 12-C , 14-C ) :   1.1802
B( 12-C , 21-C ) :   1.1585 B( 13-C , 15-C ) :   1.1892 B( 13-C , 22-C ) :   1.4461
B( 14-C , 23-C ) :   1.2132 B( 15-C , 24-C ) :   1.4473 B( 16-C , 25-C ) :   1.1741
B( 17-C , 18-C ) :   1.1841 B( 17-C , 26-C ) :   1.4421 B( 18-C , 27-C ) :   1.4505
B( 19-C , 28-C ) :   1.1751 B( 19-C , 29-C ) :   1.4440 B( 20-C , 29-C ) :   1.1782
B( 20-C , 30-C ) :   1.1732 B( 21-C , 30-C ) :   1.4548 B( 21-C , 31-C ) :   1.1925
B( 22-C , 23-C ) :   0.1431 B( 22-C , 32-C ) :   1.0331 B( 22-C , 33-C ) :   1.1491
B( 23-C , 31-C ) :   1.0844 B( 23-C , 32-C ) :   1.4152 B( 24-C , 27-C ) :   1.1587
B( 24-C , 34-C ) :   1.1913 B( 25-C , 28-C ) :   1.1753 B( 25-C , 35-C ) :   1.4457
B( 26-C , 35-C ) :   1.1705 B( 26-C , 36-C ) :   1.1848 B( 27-C , 37-C ) :   1.1883
B( 28-C , 38-C ) :   1.4461 B( 29-C , 39-C ) :   1.1777 B( 30-C , 40-C ) :   1.1749
B( 31-C , 41-C ) :   1.5051 B( 32-C , 42-C ) :   0.4550 B( 32-C , 68-C ) :   0.9211
B( 33-C , 34-C ) :   1.4802 B( 33-C , 43-C ) :   1.1606 B( 34-C , 44-C ) :   1.1752
B( 35-C , 45-C ) :   1.1769 B( 36-C , 37-C ) :   1.4475 B( 36-C , 46-C ) :   1.1636
B( 37-C , 44-C ) :   1.1606 B( 38-C , 47-C ) :   1.1750 B( 38-C , 48-C ) :   1.1716
B( 39-C , 40-C ) :   1.1718 B( 39-C , 48-C ) :   1.4432 B( 40-C , 49-C ) :   1.4534
B( 41-C , 49-C ) :   1.1744 B( 41-C , 50-C ) :   1.1290 B( 42-C , 43-C ) :   1.0776
B( 42-C , 50-C ) :   1.3612 B( 42-C , 68-C ) :   0.9271 B( 43-C , 50-C ) :   0.1501
B( 43-C , 51-C ) :   1.4753 B( 44-C , 52-C ) :   1.4553 B( 45-C , 46-C ) :   1.1794
B( 45-C , 47-C ) :   1.4433 B( 46-C , 53-C ) :   1.4452 B( 47-C , 54-C ) :   1.1799
B( 48-C , 55-C ) :   1.1721 B( 49-C , 56-C ) :   1.1654 B( 50-C , 57-C ) :   1.2101
B( 51-C , 52-C ) :   1.1841 B( 51-C , 58-C ) :   1.1845 B( 52-C , 53-C ) :   1.1748
B( 53-C , 59-C ) :   1.1853 B( 54-C , 55-C ) :   1.1779 B( 54-C , 59-C ) :   1.4403
B( 55-C , 56-C ) :   1.4428 B( 56-C , 57-C ) :   1.1819 B( 57-C , 58-C ) :   1.4786
B( 58-C , 59-C ) :   1.1452 B( 60-H , 61-C ) :   0.9865 B( 61-C , 62-H ) :   0.9842
B( 61-C , 64-C ) :   0.9527 B( 61-C , 66-H ) :   0.9855 B( 63-H , 64-C ) :   0.9823
B( 64-C , 65-O ) :   0.8826 B( 64-C , 70-H ) :   0.9964 B( 65-O , 67-C ) :   1.2189
B( 65-O , 68-C ) :  -0.1102 B( 67-C , 68-C ) :   0.8741 B( 67-C , 69-O ) :   2.0642
B( 68-C , 71-C ) :   0.8406 B( 71-C , 73-O ) :   1.1999 B( 71-C , 75-O ) :   2.0680
B( 72-H , 77-C ) :   0.9861 B( 73-O , 76-C ) :   0.8653 B( 74-H , 76-C ) :   0.9815
B( 76-C , 77-C ) :   0.9802 B( 76-C , 80-H ) :   0.9830 B( 77-C , 78-H ) :   0.9899
B( 77-C , 79-H ) :   0.9863

Dispersion correction           -0.077115819
FINAL SINGLE POINT ENERGY     -2860.017742981907

DIPOLE MOMENT
-------------

Method             : SCF
Type of density    : Electron Density
Multiplicity       :   1
Irrep              :   0
Energy             : -2859.9406271632337848 Eh
Relativity type    :
Basis              : AO
                                X                 Y                 Z
Electronic contribution:     10.961317802     -56.217937379      -6.823020029
Nuclear contribution   :    -11.174434484      57.627963942       7.004473160
                        -----------------------------------------
Total Dipole Moment    :     -0.213116682       1.410026563       0.181453130
                        -----------------------------------------
Magnitude (a.u.)       :      1.437539171
Magnitude (Debye)      :      3.653934189

Rotational constants in cm-1:             0.002428             0.001443             0.001373
Rotational constants in MHz :            72.796164            43.274744            41.174552

                             ****ORCA TERMINATED NORMALLY****
TOTAL RUN TIME: 0 days 0 hours 13 minutes 41 seconds 722 msec
