                         Program Version 6.0.1  -  RELEASE   -
|  1> ! wB97X-D3 def2-TZVPP TightSCF RIJCOSX SP
|  2>
|  3> %pal
|  4> nprocs 28
|  5> end
|  6>
|  7> %maxcore 3500
|  8>
|  9>
| 10> * xyz -1 2
| 11>   O          -0.03169490650674      1.75876148554265     -1.80901352164238
| 12>   O          -4.16699677913493     -1.53404874430042      1.47792878384781
| 13>   C           0.94142671395610      0.28382826408577     -0.20712817572083
| 14>   C          -0.38874018906133     -0.19155450577471      0.25567903754199
| 15>   C          -2.67313935010670     -0.91754893739751     -0.27038866154399
| 16>   C          -1.41651869987328     -0.46264135463321     -0.66224332879009
| 17>   C           3.38995731978558      0.19995263392543     -0.01056967342824
| 18>   C           2.10822226193338     -0.20622941129724      0.38050693111647
| 19>   C           1.01995900592647      1.25800026681261     -1.26679936016099
| 20>   C          -0.66828062939066     -0.39927135473022      1.61021532780526
| 21>   C          -2.92582255634115     -1.10492124897011      1.09643123123309
| 22>   C          -3.75968086619690     -1.13999089373533     -1.30250539548871
| 23>   C           4.62712741088993     -0.36641393723413      0.65842838613282
| 24>   C           3.47284234399772      1.13485277303570     -1.04856477419644
| 25>   C          -1.91896993925597     -0.85609389388476      2.02783772173803
| 26>   C           2.33385819972510      1.64546305431604     -1.65586621860198
| 27>   C          -4.37872016322826      0.16094265928037     -1.74171810706191
| 28>   C           4.73192035518438     -1.86170686645540      0.54085987784226
| 29>   C          -5.63276029822090      0.53330380225707     -1.48523238526818
| 30>   C           4.82607112355980     -2.71617911040048      1.56077309440638
| 31>   H          -1.24069924604114     -0.28775705951652     -1.72609449337243
| 32>   H           2.01530189889626     -0.96767611610127      1.16480036411507
| 33>   H           0.09756011081804     -0.18064688998711      2.36003613977664
| 34>   H          -3.30779495454441     -1.62242382536587     -2.18434676759587
| 35>   H          -4.53191825479656     -1.81299034547044     -0.90235723729614
| 36>   H           5.51732388737488      0.08732532031317      0.18766233932162
| 37>   H           4.66657431698608     -0.08716728188554      1.72714832606153
| 38>   H           4.45953992456286      1.47226093949298     -1.39043390625471
| 39>   H          -2.12158928029585     -1.00463685565211      3.09534112135796
| 40>   H           2.41372987159679      2.38263111511956     -2.46043327595452
| 41>   H          -3.70647877411884      0.82456398325325     -2.30072160433444
| 42>   H           4.70046540570245     -2.25464940588950     -0.48388959037585
| 43>   H          -0.42645909018467      1.58274166580595     -3.12125517092562
| 44>   H          -4.17847138449708     -1.59677275308823      2.43653011816661
| 45>   H          -6.02117050978590      1.49908705102669     -1.82180069082171
| 46>   H          -6.31188264849867     -0.11092357145679     -0.91547869788346
| 47>   H           4.88293491759139     -3.79695931443282      1.40208286922561
| 48>   H           4.83706191591826     -2.36345781345574      2.59822484517604
| 49>   O          -0.81362158184288      1.40323078074807     -4.10266299057334
| 50>   O          -1.64385088248261      0.40991369610020     -4.00028148757333
| 51> *
| 52>
| 53>                          ****END OF INPUT****

CARTESIAN COORDINATES (ANGSTROEM)
---------------------------------
  O     -0.031695    1.758761   -1.809014
  O     -4.166997   -1.534049    1.477929
  C      0.941427    0.283828   -0.207128
  C     -0.388740   -0.191555    0.255679
  C     -2.673139   -0.917549   -0.270389
  C     -1.416519   -0.462641   -0.662243
  C      3.389957    0.199953   -0.010570
  C      2.108222   -0.206229    0.380507
  C      1.019959    1.258000   -1.266799
  C     -0.668281   -0.399271    1.610215
  C     -2.925823   -1.104921    1.096431
  C     -3.759681   -1.139991   -1.302505
  C      4.627127   -0.366414    0.658428
  C      3.472842    1.134853   -1.048565
  C     -1.918970   -0.856094    2.027838
  C      2.333858    1.645463   -1.655866
  C     -4.378720    0.160943   -1.741718
  C      4.731920   -1.861707    0.540860
  C     -5.632760    0.533304   -1.485232
  C      4.826071   -2.716179    1.560773
  H     -1.240699   -0.287757   -1.726094
  H      2.015302   -0.967676    1.164800
  H      0.097560   -0.180647    2.360036
  H     -3.307795   -1.622424   -2.184347
  H     -4.531918   -1.812990   -0.902357
  H      5.517324    0.087325    0.187662
  H      4.666574   -0.087167    1.727148
  H      4.459540    1.472261   -1.390434
  H     -2.121589   -1.004637    3.095341
  H      2.413730    2.382631   -2.460433
  H     -3.706479    0.824564   -2.300722
  H      4.700465   -2.254649   -0.483890
  H     -0.426459    1.582742   -3.121255
  H     -4.178471   -1.596773    2.436530
  H     -6.021171    1.499087   -1.821801
  H     -6.311883   -0.110924   -0.915479
  H      4.882935   -3.796959    1.402083
  H      4.837062   -2.363458    2.598225
  O     -0.813622    1.403231   -4.102663
  O     -1.643851    0.409914   -4.000281

 Total Charge           Charge          ....   -1
 Multiplicity           Mult            ....    2
 Number of Electrons    NEL             ....  159
 Basis Dimension        Dim             ....  934

ORBITAL ENERGIES
----------------
                 SPIN UP ORBITALS
  NO   OCC          E(Eh)            E(eV)
   0   1.0000     -19.165261      -521.5133
   1   1.0000     -19.158416      -521.3270
   2   1.0000     -19.136452      -520.7293
   3   1.0000     -19.031241      -517.8664
   4   1.0000     -10.231370      -278.4097
   5   1.0000     -10.195130      -277.4236
   6   1.0000     -10.193159      -277.3700
   7   1.0000     -10.184690      -277.1395
   8   1.0000     -10.183223      -277.0996
   9   1.0000     -10.177085      -276.9326
  10   1.0000     -10.173922      -276.8465
  11   1.0000     -10.173696      -276.8403
  12   1.0000     -10.172226      -276.8004
  13   1.0000     -10.169669      -276.7308
  14   1.0000     -10.166127      -276.6344
  15   1.0000     -10.164989      -276.6034
  16   1.0000     -10.155511      -276.3455
  17   1.0000     -10.154360      -276.3142
  18   1.0000     -10.153221      -276.2832
  19   1.0000     -10.152662      -276.2680
  20   1.0000     -10.146138      -276.0905
  21   1.0000     -10.133483      -275.7461
  22   1.0000      -1.142654       -31.0932
  23   1.0000      -1.082552       -29.4577
  24   1.0000      -0.966006       -26.2864
  25   1.0000      -0.864629       -23.5278
  26   1.0000      -0.844316       -22.9750
  27   1.0000      -0.813601       -22.1392
  28   1.0000      -0.805810       -21.9272
  29   1.0000      -0.785742       -21.3811
  30   1.0000      -0.765826       -20.8392
  31   1.0000      -0.753990       -20.5171
  32   1.0000      -0.732082       -19.9210
  33   1.0000      -0.711442       -19.3593
  34   1.0000      -0.682710       -18.5775
  35   1.0000      -0.663486       -18.0544
  36   1.0000      -0.627840       -17.0844
  37   1.0000      -0.604281       -16.4433
  38   1.0000      -0.575393       -15.6572
  39   1.0000      -0.566165       -15.4061
  40   1.0000      -0.553050       -15.0493
  41   1.0000      -0.546146       -14.8614
  42   1.0000      -0.536453       -14.5976
  43   1.0000      -0.502510       -13.6740
  44   1.0000      -0.489601       -13.3227
  45   1.0000      -0.478810       -13.0291
  46   1.0000      -0.467315       -12.7163
  47   1.0000      -0.455759       -12.4018
  48   1.0000      -0.444030       -12.0827
  49   1.0000      -0.437096       -11.8940
  50   1.0000      -0.436394       -11.8749
  51   1.0000      -0.430742       -11.7211
  52   1.0000      -0.427912       -11.6441
  53   1.0000      -0.415966       -11.3190
  54   1.0000      -0.410568       -11.1721
  55   1.0000      -0.409172       -11.1341
  56   1.0000      -0.401457       -10.9242
  57   1.0000      -0.394449       -10.7335
  58   1.0000      -0.387529       -10.5452
  59   1.0000      -0.379355       -10.3228
  60   1.0000      -0.370256       -10.0752
  61   1.0000      -0.365628        -9.9492
  62   1.0000      -0.361359        -9.8331
  63   1.0000      -0.348759        -9.4902
  64   1.0000      -0.346603        -9.4316
  65   1.0000      -0.336041        -9.1442
  66   1.0000      -0.324350        -8.8260
  67   1.0000      -0.322169        -8.7667
  68   1.0000      -0.311852        -8.4859
  69   1.0000      -0.306153        -8.3309
  70   1.0000      -0.285073        -7.7572
  71   1.0000      -0.262563        -7.1447
  72   1.0000      -0.247661        -6.7392
  73   1.0000      -0.228929        -6.2295
  74   1.0000      -0.221451        -6.0260
  75   1.0000      -0.219385        -5.9698
  76   1.0000      -0.212470        -5.7816
  77   1.0000      -0.190746        -5.1905
  78   1.0000      -0.182540        -4.9672
  79   1.0000      -0.134749        -3.6667
  80   0.0000       0.163530         4.4499
  81   0.0000       0.171113         4.6562
  82   0.0000       0.178650         4.8613
  83   0.0000       0.194053         5.2805
  84   0.0000       0.196584         5.3493

                 SPIN DOWN ORBITALS
  NO   OCC          E(Eh)            E(eV)
   0   1.0000     -19.165261      -521.5133
   1   1.0000     -19.149280      -521.0784
   2   1.0000     -19.121633      -520.3261
   3   1.0000     -19.031306      -517.8682
   4   1.0000     -10.231372      -278.4098
   5   1.0000     -10.195131      -277.4236
   6   1.0000     -10.193159      -277.3700
   7   1.0000     -10.184689      -277.1395
   8   1.0000     -10.183223      -277.0996
   9   1.0000     -10.177063      -276.9320
  10   1.0000     -10.173924      -276.8465
  11   1.0000     -10.173694      -276.8403
  12   1.0000     -10.172224      -276.8003
  13   1.0000     -10.169671      -276.7308
  14   1.0000     -10.166125      -276.6343
  15   1.0000     -10.164987      -276.6034
  16   1.0000     -10.155507      -276.3454
  17   1.0000     -10.154377      -276.3146
  18   1.0000     -10.153224      -276.2833
  19   1.0000     -10.152662      -276.2680
  20   1.0000     -10.146145      -276.0907
  21   1.0000     -10.133488      -275.7462
  22   1.0000      -1.112828       -30.2816
  23   1.0000      -1.082554       -29.4578
  24   1.0000      -0.965840       -26.2818
  25   1.0000      -0.864613       -23.5273
  26   1.0000      -0.844287       -22.9742
  27   1.0000      -0.813554       -22.1379
  28   1.0000      -0.805540       -21.9198
  29   1.0000      -0.766191       -20.8491
  30   1.0000      -0.754198       -20.5228
  31   1.0000      -0.743526       -20.2324
  32   1.0000      -0.731049       -19.8929
  33   1.0000      -0.711448       -19.3595
  34   1.0000      -0.682709       -18.5774
  35   1.0000      -0.663208       -18.0468
  36   1.0000      -0.627809       -17.0836
  37   1.0000      -0.604280       -16.4433
  38   1.0000      -0.575234       -15.6529
  39   1.0000      -0.566097       -15.4043
  40   1.0000      -0.552727       -15.0405
  41   1.0000      -0.546074       -14.8594
  42   1.0000      -0.536247       -14.5920
  43   1.0000      -0.494858       -13.4658
  44   1.0000      -0.487781       -13.2732
  45   1.0000      -0.478575       -13.0227
  46   1.0000      -0.466470       -12.6933
  47   1.0000      -0.455594       -12.3973
  48   1.0000      -0.443165       -12.0591
  49   1.0000      -0.436889       -11.8884
  50   1.0000      -0.435181       -11.8419
  51   1.0000      -0.428056       -11.6480
  52   1.0000      -0.411184       -11.1889
  53   1.0000      -0.409192       -11.1347
  54   1.0000      -0.402091       -10.9415
  55   1.0000      -0.397800       -10.8247
  56   1.0000      -0.393760       -10.7147
  57   1.0000      -0.387531       -10.5453
  58   1.0000      -0.378245       -10.2926
  59   1.0000      -0.370436       -10.0801
  60   1.0000      -0.365431        -9.9439
  61   1.0000      -0.361461        -9.8358
  62   1.0000      -0.348218        -9.4755
  63   1.0000      -0.347775        -9.4634
  64   1.0000      -0.340326        -9.2607
  65   1.0000      -0.334778        -9.1098
  66   1.0000      -0.324136        -8.8202
  67   1.0000      -0.321375        -8.7451
  68   1.0000      -0.311581        -8.4786
  69   1.0000      -0.306134        -8.3303
  70   1.0000      -0.283951        -7.7267
  71   1.0000      -0.262365        -7.1393
  72   1.0000      -0.247586        -6.7372
  73   1.0000      -0.228797        -6.2259
  74   1.0000      -0.219986        -5.9861
  75   1.0000      -0.204168        -5.5557
  76   1.0000      -0.185917        -5.0591
  77   1.0000      -0.179955        -4.8968
  78   1.0000      -0.133813        -3.6412
  79   0.0000       0.142388         3.8746
  80   0.0000       0.163564         4.4508
  81   0.0000       0.171343         4.6625
  82   0.0000       0.178661         4.8616
  83   0.0000       0.194087         5.2814

MULLIKEN ATOMIC CHARGES AND SPIN POPULATIONS
--------------------------------------------
   0 O :   -0.579121   -0.000713
   1 O :   -0.323849   -0.000011
   2 C :   -0.010588    0.000251
   3 C :    0.114602    0.000249
   4 C :   -0.043029    0.000813
   5 C :   -0.094093   -0.001414
   6 C :   -0.041080   -0.000498
   7 C :   -0.172461    0.000220
   8 C :    0.226669   -0.000937
   9 C :   -0.204438   -0.000255
  10 C :    0.233159   -0.000162
  11 C :   -0.097196    0.000345
  12 C :   -0.095308    0.000036
  13 C :   -0.097810    0.000280
  14 C :   -0.178525    0.000156
  15 C :   -0.248835   -0.000086
  16 C :   -0.108520    0.003130
  17 C :   -0.109130   -0.000010
  18 C :   -0.248873   -0.000079
  19 C :   -0.238254   -0.000012
  20 H :    0.122081   -0.001302
  21 H :    0.087154   -0.000016
  22 H :    0.097663    0.000003
  23 H :    0.095598   -0.000232
  24 H :    0.067364    0.000115
  25 H :    0.064234   -0.000002
  26 H :    0.068800   -0.000028
  27 H :    0.067302   -0.000009
  28 H :    0.056210   -0.000002
  29 H :    0.073410    0.000142
  30 H :    0.122562   -0.002626
  31 H :    0.101783   -0.000002
  32 H :    0.259960   -0.004844
  33 H :    0.169611   -0.000002
  34 H :    0.085117    0.000046
  35 H :    0.065470    0.000114
  36 H :    0.085354   -0.000000
  37 H :    0.067850   -0.000000
  38 O :   -0.168931    0.356018
  39 O :   -0.271910    0.651324
Sum of atomic charges         :   -1.0000000

LOEWDIN ATOMIC CHARGES AND SPIN POPULATIONS
-------------------------------------------
   0 O :    0.077801   -0.001461
   1 O :    0.324556   -0.000017
   2 C :   -0.073231   -0.000306
   3 C :   -0.064972   -0.000022
   4 C :   -0.076455    0.000034
   5 C :    0.040435   -0.000664
   6 C :   -0.127903   -0.000349
   7 C :   -0.015517    0.000095
   8 C :   -0.295756   -0.000203
   9 C :   -0.015949   -0.000085
  10 C :   -0.197554   -0.000066
  11 C :   -0.025179   -0.000077
  12 C :   -0.041282   -0.000040
  13 C :   -0.050954    0.000113
  14 C :   -0.064659    0.000066
  15 C :   -0.052053   -0.000162
  16 C :   -0.015787    0.001097
  17 C :   -0.029870   -0.000015
  18 C :   -0.030897    0.000225
  19 C :   -0.031400   -0.000008
  20 H :    0.027020   -0.001019
  21 H :    0.022961    0.000010
  22 H :    0.019905   -0.000014
  23 H :    0.037439   -0.000093
  24 H :    0.025880    0.000007
  25 H :    0.028902    0.000001
  26 H :    0.026318   -0.000016
  27 H :    0.010751    0.000016
  28 H :    0.005561    0.000007
  29 H :    0.008816    0.000011
  30 H :    0.028023    0.001019
  31 H :    0.021116   -0.000002
  32 H :   -0.262776    0.013136
  33 H :   -0.123549   -0.000002
  34 H :   -0.005368    0.000018
  35 H :   -0.004671    0.000061
  36 H :   -0.005137   -0.000001
  37 H :   -0.003995   -0.000001
  38 O :    0.117631    0.351477
  39 O :   -0.208200    0.637231

  Mayer bond orders larger than 0.100000
B(  0-O ,  8-C ) :   1.4406 B(  0-O , 32-H ) :   0.3383 B(  1-O , 10-C ) :   1.0669
B(  1-O , 33-H ) :   1.0211 B(  2-C ,  3-C ) :   0.8444 B(  2-C ,  7-C ) :   1.4010
B(  2-C ,  8-C ) :   1.1957 B(  3-C ,  5-C ) :   1.3687 B(  3-C ,  9-C ) :   1.3953
B(  4-C ,  5-C ) :   1.4678 B(  4-C , 10-C ) :   1.3407 B(  4-C , 11-C ) :   0.9202
B(  5-C , 20-H ) :   0.9307 B(  6-C ,  7-C ) :   1.4107 B(  6-C , 12-C ) :   0.9427
B(  6-C , 13-C ) :   1.3441 B(  7-C , 21-H ) :   0.9502 B(  8-C , 15-C ) :   1.3863
B(  9-C , 14-C ) :   1.4581 B(  9-C , 22-H ) :   0.9636 B( 10-C , 14-C ) :   1.3940
B( 11-C , 16-C ) :   0.9516 B( 11-C , 23-H ) :   1.0083 B( 11-C , 24-H ) :   1.0031
B( 12-C , 17-C ) :   0.9481 B( 12-C , 25-H ) :   0.9963 B( 12-C , 26-H ) :   1.0003
B( 13-C , 15-C ) :   1.4687 B( 13-C , 27-H ) :   0.9837 B( 14-C , 28-H ) :   0.9760
B( 15-C , 29-H ) :   0.9954 B( 16-C , 18-C ) :   1.9161 B( 16-C , 30-H ) :   0.9682
B( 17-C , 19-C ) :   1.9026 B( 17-C , 31-H ) :   0.9794 B( 18-C , 34-H ) :   0.9942
B( 18-C , 35-H ) :   0.9969 B( 19-C , 36-H ) :   0.9976 B( 19-C , 37-H ) :   0.9950
B( 32-H , 38-O ) :   0.7120 B( 38-O , 39-O ) :   1.2697

Dispersion correction           -0.018429405
FINAL SINGLE POINT ENERGY      -997.657257716650

DIPOLE MOMENT
-------------

Method             : SCF
Type of density    : Electron Density
Multiplicity       :   2
Irrep              :   0
Energy             :  -997.6388283116042430 Eh
Relativity type    :
Basis              : AO
                                X                 Y                 Z
Electronic contribution:     -4.820719248       4.270442127      -3.893505819
Nuclear contribution   :      4.970247276      -5.662855017       6.520251977
                        -----------------------------------------
Total Dipole Moment    :      0.149528028      -1.392412890       2.626746158
                        -----------------------------------------
Magnitude (a.u.)       :      2.976737756
Magnitude (Debye)      :      7.566266074

Rotational constants in cm-1:             0.013258             0.005419             0.004171
Rotational constants in MHz :           397.450870           162.463081           125.029666

                             ****ORCA TERMINATED NORMALLY****
TOTAL RUN TIME: 0 days 0 hours 2 minutes 14 seconds 865 msec
