                         Program Version 6.0.1  -  RELEASE   -
|  1> ! wB97X-D3 def2-SVP OPT NormalSCF
|  2>
|  3> %pal
|  4> nprocs 28
|  5> end
|  6>
|  7> %maxcore 3500
|  8>
|  9> %scf
| 10>  SmearTemp 500
| 11> end
| 12>
| 13> * xyz -1 2
| 14> O 0.17169 2.05725 -1.80272
| 15> O -4.09357 -1.39903 1.23266
| 16> C 1.05035 0.444506 -0.274697
| 17> C -0.305395 -0.008963 0.123537
| 18> C -2.60471 -0.656007 -0.45342
| 19> C -1.33946 -0.192201 -0.812935
| 20> C 3.49412 0.268234 0.005916
| 21> C 2.187 -0.132062 0.311259
| 22> C 1.25772 1.47238 -1.22471
| 23> C -0.586309 -0.30619 1.46633
| 24> C -2.85416 -0.945741 0.902383
| 25> C -3.71693 -0.800485 -1.46975
| 26> C 4.67964 -0.392949 0.686038
| 27> C 3.66369 1.28446 -0.938877
| 28> C -1.84297 -0.770883 1.85232
| 29> C 2.55644 1.87872 -1.54619
| 30> C -4.63815 0.394721 -1.45695
| 31> C 4.6667 -1.89288 0.565789
| 32> C -5.92081 0.372055 -1.08833
| 33> C 4.6241 -2.74581 1.5929
| 34> H -1.14861 0.030136 -1.86322
| 35> H 2.04281 -0.949452 1.02155
| 36> H 0.182952 -0.156 2.22669
| 37> H -3.26638 -0.903905 -2.47151
| 38> H -4.29679 -1.71395 -1.26747
| 39> H 5.60741 0.003244 0.237321
| 40> H 4.70509 -0.115308 1.75487
| 41> H 4.66929 1.61904 -1.20833
| 42> H -2.04661 -0.992006 2.90519
| 43> H 2.69827 2.67735 -2.28197
| 44> H -4.17593 1.34601 -1.75068
| 45> H 4.67321 -2.28492 -0.459296
| 46> H 0.470608 2.7632 -2.39045
| 47> H -4.13363 -1.55431 2.18514
| 48> H -6.53208 1.27926 -1.08624
| 49> H -6.40214 -0.556626 -0.765117
| 50> H 4.60897 -3.8286 1.43968
| 51> H 4.60538 -2.38987 2.62898
| 52> O 1.40173 4.70018 -3.3681
| 53> O 1.39853 3.85137 -4.20973
| 54> *
| 55>
| 56>                          ****END OF INPUT****
 Total Charge           Charge          ....   -1
 Multiplicity           Mult            ....    2
 Number of Electrons    NEL             ....  159
Dispersion correction           -0.017301289
FINAL SINGLE POINT ENERGY      -996.497893770014
Dispersion correction             ... done (  0.0 sec)
Dispersion correction           -0.017309939
FINAL SINGLE POINT ENERGY      -996.519575671114
Dispersion correction             ... done (  0.0 sec)
Dispersion correction           -0.017299663
FINAL SINGLE POINT ENERGY      -996.524365934624
Dispersion correction             ... done (  0.0 sec)
FINAL SINGLE POINT ENERGY      -996.529003344908
FINAL SINGLE POINT ENERGY      -996.533006425639
FINAL SINGLE POINT ENERGY      -996.534430221175
FINAL SINGLE POINT ENERGY      -996.534924349685
FINAL SINGLE POINT ENERGY      -996.536414680570
FINAL SINGLE POINT ENERGY      -996.537466504681
FINAL SINGLE POINT ENERGY      -996.538465446577
FINAL SINGLE POINT ENERGY      -996.556424389591
FINAL SINGLE POINT ENERGY      -996.556453147073
FINAL SINGLE POINT ENERGY      -996.556463991123
FINAL SINGLE POINT ENERGY      -996.556455277100
FINAL SINGLE POINT ENERGY      -996.556468031398
FINAL SINGLE POINT ENERGY      -996.556469437469
FINAL SINGLE POINT ENERGY      -996.556470841258
Dispersion correction             ... done (  0.1 sec)
Dispersion correction           -0.017058381
FINAL SINGLE POINT ENERGY      -996.556471638065
Dispersion correction             ... done (  0.1 sec)
Dispersion correction           -0.017057956
FINAL SINGLE POINT ENERGY      -996.556471964892
Dispersion correction             ... done (  0.0 sec)
                    ***********************HURRAY********************

CARTESIAN COORDINATES (ANGSTROEM)
---------------------------------
  O      0.232497    1.898118   -1.923890
  O     -4.119212   -1.447822    1.192253
  C      1.053903    0.416789   -0.245215
  C     -0.303433   -0.048477    0.143718
  C     -2.616727   -0.625817   -0.453215
  C     -1.347495   -0.160669   -0.792199
  C      3.482970    0.301943    0.134743
  C      2.175855   -0.106572    0.406908
  C      1.229544    1.410279   -1.274326
  C     -0.597978   -0.411947    1.464582
  C     -2.870424   -0.991781    0.876467
  C     -3.731137   -0.689358   -1.475344
  C      4.661616   -0.317479    0.859850
  C      3.650237    1.286280   -0.850059
  C     -1.858631   -0.884242    1.827795
  C      2.570725    1.824451   -1.529698
  C     -4.600653    0.539647   -1.429913
  C      4.821185   -1.785503    0.575319
  C     -5.897763    0.553930   -1.124601
  C      4.833940   -2.757742    1.488570
  H     -1.145206    0.155842   -1.816572
  H      2.023315   -0.896034    1.152818
  H      0.169840   -0.306919    2.235616
  H     -3.280393   -0.770820   -2.477909
  H     -4.349098   -1.585678   -1.311047
  H      5.581246    0.205147    0.542265
  H      4.582229   -0.170053    1.952053
  H      4.661340    1.635356   -1.094699
  H     -2.063774   -1.157923    2.869559
  H      2.707962    2.589722   -2.300794
  H     -4.085422    1.484053   -1.647754
  H      4.905660   -2.048933   -0.487222
  H      0.390455    2.873755   -2.901046
  H     -4.144422   -1.626841    2.135906
  H     -6.468203    1.486963   -1.097235
  H     -6.432363   -0.368917   -0.875396
  H      4.935267   -3.809938    1.207205
  H      4.729654   -2.535676    2.556564
  O      1.627850    3.975549   -3.887413
  O      0.396111    3.621284   -3.678781

 Multiplicity           Mult            ....    2
 Number of Electrons    NEL             ....  159
 Basis Dimension        Dim             ....  398

ORBITAL ENERGIES
----------------
                 SPIN UP ORBITALS
  NO   OCC          E(Eh)            E(eV)
   0   1.0000     -19.176191      -521.8107
   1   1.0000     -19.143262      -520.9146
   2   1.0000     -19.123278      -520.3708
   3   1.0000     -19.040325      -518.1136
   4   1.0000     -10.246644      -278.8254
   5   1.0000     -10.205096      -277.6948
   6   1.0000     -10.204739      -277.6851
   7   1.0000     -10.200431      -277.5678
   8   1.0000     -10.199737      -277.5490
   9   1.0000     -10.195975      -277.4466
  10   1.0000     -10.195946      -277.4458
  11   1.0000     -10.193159      -277.3700
  12   1.0000     -10.190864      -277.3075
  13   1.0000     -10.189110      -277.2598
  14   1.0000     -10.185343      -277.1573
  15   1.0000     -10.179534      -276.9992
  16   1.0000     -10.173500      -276.8350
  17   1.0000     -10.161281      -276.5025
  18   1.0000     -10.160812      -276.4897
  19   1.0000     -10.156210      -276.3645
  20   1.0000     -10.150995      -276.2226
  21   1.0000     -10.132565      -275.7211
  22   1.0000      -1.112431       -30.2708
  23   1.0000      -1.072567       -29.1860
  24   1.0000      -0.950896       -25.8752
  25   1.0000      -0.862518       -23.4703
  26   1.0000      -0.832655       -22.6577
  27   1.0000      -0.815027       -22.1780
  28   1.0000      -0.796314       -21.6688
  29   1.0000      -0.761661       -20.7258
  30   1.0000      -0.753974       -20.5167
  31   1.0000      -0.749468       -20.3941
  32   1.0000      -0.719362       -19.5748
  33   1.0000      -0.702938       -19.1279
  34   1.0000      -0.685248       -18.6465
  35   1.0000      -0.651553       -17.7297
  36   1.0000      -0.627527       -17.0759
  37   1.0000      -0.600661       -16.3448
  38   1.0000      -0.568961       -15.4822
  39   1.0000      -0.564780       -15.3684
  40   1.0000      -0.552753       -15.0412
  41   1.0000      -0.545451       -14.8425
  42   1.0000      -0.537652       -14.6302
  43   1.0000      -0.491623       -13.3777
  44   1.0000      -0.484463       -13.1829
  45   1.0000      -0.479618       -13.0511
  46   1.0000      -0.467566       -12.7231
  47   1.0000      -0.459989       -12.5169
  48   1.0000      -0.441867       -12.0238
  49   1.0000      -0.439242       -11.9524
  50   1.0000      -0.433700       -11.8016
  51   1.0000      -0.430724       -11.7206
  52   1.0000      -0.414975       -11.2920
  53   1.0000      -0.412643       -11.2286
  54   1.0000      -0.411004       -11.1840
  55   1.0000      -0.404530       -11.0078
  56   1.0000      -0.399978       -10.8840
  57   1.0000      -0.392579       -10.6826
  58   1.0000      -0.381602       -10.3839
  59   1.0000      -0.376452       -10.2438
  60   1.0000      -0.372731       -10.1425
  61   1.0000      -0.361532        -9.8378
  62   1.0000      -0.358664        -9.7597
  63   1.0000      -0.352237        -9.5849
  64   1.0000      -0.346618        -9.4320
  65   1.0000      -0.345226        -9.3941
  66   1.0000      -0.326359        -8.8807
  67   1.0000      -0.325068        -8.8456
  68   1.0000      -0.314281        -8.5520
  69   1.0000      -0.302149        -8.2219
  70   1.0000      -0.276071        -7.5123
  71   1.0000      -0.260518        -7.0891
  72   1.0000      -0.257810        -7.0154
  73   1.0000      -0.231305        -6.2941
  74   1.0000      -0.225038        -6.1236
  75   1.0000      -0.216051        -5.8790
  76   1.0000      -0.200533        -5.4568
  77   1.0000      -0.179848        -4.8939
  78   1.0000      -0.171278        -4.6607
  79   1.0000      -0.126264        -3.4358
  80   0.0000       0.165586         4.5058
  81   0.0000       0.171351         4.6627
  82   0.0000       0.187996         5.1156
  83   0.0000       0.198777         5.4090
  84   0.0000       0.220749         6.0069

                 SPIN DOWN ORBITALS
  NO   OCC          E(Eh)            E(eV)
   0   1.0000     -19.176191      -521.8107
   1   1.0000     -19.134368      -520.6726
   2   1.0000     -19.108569      -519.9706
   3   1.0000     -19.040405      -518.1158
   4   1.0000     -10.246643      -278.8253
   5   1.0000     -10.205096      -277.6948
   6   1.0000     -10.204739      -277.6851
   7   1.0000     -10.200438      -277.5680
   8   1.0000     -10.199737      -277.5490
   9   1.0000     -10.195975      -277.4466
  10   1.0000     -10.195946      -277.4458
  11   1.0000     -10.193160      -277.3700
  12   1.0000     -10.190865      -277.3075
  13   1.0000     -10.189111      -277.2598
  14   1.0000     -10.185342      -277.1572
  15   1.0000     -10.179535      -276.9992
  16   1.0000     -10.173499      -276.8350
  17   1.0000     -10.161286      -276.5026
  18   1.0000     -10.160814      -276.4898
  19   1.0000     -10.156203      -276.3643
  20   1.0000     -10.150991      -276.2225
  21   1.0000     -10.132582      -275.7216
  22   1.0000      -1.082857       -29.4660
  23   1.0000      -1.072566       -29.1860
  24   1.0000      -0.950760       -25.8715
  25   1.0000      -0.862511       -23.4701
  26   1.0000      -0.832625       -22.6569
  27   1.0000      -0.815024       -22.1779
  28   1.0000      -0.796213       -21.6660
  29   1.0000      -0.761615       -20.7246
  30   1.0000      -0.753365       -20.5001
  31   1.0000      -0.721465       -19.6321
  32   1.0000      -0.707115       -19.2416
  33   1.0000      -0.702943       -19.1281
  34   1.0000      -0.685224       -18.6459
  35   1.0000      -0.651069       -17.7165
  36   1.0000      -0.627461       -17.0741
  37   1.0000      -0.600659       -16.3448
  38   1.0000      -0.568853       -15.4793
  39   1.0000      -0.564735       -15.3672
  40   1.0000      -0.552551       -15.0357
  41   1.0000      -0.545239       -14.8367
  42   1.0000      -0.537595       -14.6287
  43   1.0000      -0.491591       -13.3769
  44   1.0000      -0.479610       -13.0509
  45   1.0000      -0.475986       -12.9522
  46   1.0000      -0.466074       -12.6825
  47   1.0000      -0.459878       -12.5139
  48   1.0000      -0.441761       -12.0209
  49   1.0000      -0.437053       -11.8928
  50   1.0000      -0.433695       -11.8014
  51   1.0000      -0.430446       -11.7130
  52   1.0000      -0.414496       -11.2790
  53   1.0000      -0.410915       -11.1816
  54   1.0000      -0.403537       -10.9808
  55   1.0000      -0.399640       -10.8747
  56   1.0000      -0.382346       -10.4042
  57   1.0000      -0.376069       -10.2334
  58   1.0000      -0.374253       -10.1839
  59   1.0000      -0.371862       -10.1189
  60   1.0000      -0.360865        -9.8196
  61   1.0000      -0.358797        -9.7634
  62   1.0000      -0.352116        -9.5816
  63   1.0000      -0.346529        -9.4295
  64   1.0000      -0.345452        -9.4002
  65   1.0000      -0.327119        -8.9014
  66   1.0000      -0.325083        -8.8460
  67   1.0000      -0.321001        -8.7349
  68   1.0000      -0.313711        -8.5365
  69   1.0000      -0.302036        -8.2188
  70   1.0000      -0.275581        -7.4989
  71   1.0000      -0.260514        -7.0889
  72   1.0000      -0.257732        -7.0132
  73   1.0000      -0.231201        -6.2913
  74   1.0000      -0.224650        -6.1130
  75   1.0000      -0.210035        -5.7153
  76   1.0000      -0.179889        -4.8950
  77   1.0000      -0.157989        -4.2991
  78   1.0000      -0.126548        -3.4435
  79   0.0000       0.165166         4.4944
  80   0.0000       0.167720         4.5639
  81   0.0000       0.171967         4.6795
  82   0.0000       0.188010         5.1160
  83   0.0000       0.198779         5.4091

LOEWDIN ATOMIC CHARGES AND SPIN POPULATIONS
-------------------------------------------
   0 O :   -0.287262   -0.002039
   1 O :   -0.074842    0.000016
   2 C :   -0.097166    0.000437
   3 C :   -0.017583   -0.000093
   4 C :   -0.068245   -0.000061
   5 C :    0.000499    0.000086
   6 C :   -0.109825    0.000518
   7 C :   -0.030426   -0.000256
   8 C :    0.045466   -0.000515
   9 C :   -0.028271    0.000101
  10 C :    0.035676    0.000088
  11 C :   -0.028439    0.000001
  12 C :   -0.032646   -0.000018
  13 C :   -0.044426   -0.000142
  14 C :   -0.105830   -0.000059
  15 C :   -0.105629   -0.000815
  16 C :   -0.010432   -0.000002
  17 C :   -0.011703    0.000017
  18 C :   -0.093170   -0.000000
  19 C :   -0.104943    0.000018
  20 H :    0.032708   -0.000009
  21 H :    0.013126   -0.000015
  22 H :    0.023376   -0.000001
  23 H :    0.036723   -0.000001
  24 H :    0.027147   -0.000001
  25 H :    0.028775   -0.000000
  26 H :    0.022603    0.000017
  27 H :    0.011405   -0.000014
  28 H :    0.014315    0.000000
  29 H :    0.016410   -0.001925
  30 H :    0.034111   -0.000000
  31 H :    0.026948    0.000000
  32 H :    0.004831   -0.000384
  33 H :    0.080845    0.000000
  34 H :    0.018426   -0.000000
  35 H :    0.017698   -0.000000
  36 H :    0.017306    0.000000
  37 H :    0.015605    0.000000
  38 O :   -0.240152    0.649947
  39 O :   -0.033009    0.355105

  Mayer bond orders larger than 0.100000
B(  0-O ,  8-C ) :   1.5019 B(  0-O , 32-H ) :   0.3275 B(  1-O , 10-C ) :   1.1719
B(  1-O , 33-H ) :   0.9712 B(  2-C ,  3-C ) :   0.9765 B(  2-C ,  7-C ) :   1.4078
B(  2-C ,  8-C ) :   1.2360 B(  3-C ,  5-C ) :   1.3677 B(  3-C ,  9-C ) :   1.4082
B(  4-C ,  5-C ) :   1.4021 B(  4-C , 10-C ) :   1.3732 B(  4-C , 11-C ) :   1.0273
B(  5-C , 20-H ) :   0.9814 B(  6-C ,  7-C ) :   1.3705 B(  6-C , 12-C ) :   1.0192
B(  6-C , 13-C ) :   1.3531 B(  7-C , 21-H ) :   0.9809 B(  8-C , 15-C ) :   1.2573
B(  9-C , 14-C ) :   1.3596 B(  9-C , 22-H ) :   0.9805 B( 10-C , 14-C ) :   1.3563
B( 11-C , 16-C ) :   1.0450 B( 11-C , 23-H ) :   0.9230 B( 11-C , 24-H ) :   0.9351
B( 12-C , 17-C ) :   1.0429 B( 12-C , 25-H ) :   0.9244 B( 12-C , 26-H ) :   0.9384
B( 13-C , 15-C ) :   1.4163 B( 13-C , 27-H ) :   0.9843 B( 14-C , 28-H ) :   0.9824
B( 15-C , 29-H ) :   0.9659 B( 16-C , 18-C ) :   2.0119 B( 16-C , 30-H ) :   0.9609
B( 17-C , 19-C ) :   1.9905 B( 17-C , 31-H ) :   0.9639 B( 18-C , 34-H ) :   0.9582
B( 18-C , 35-H ) :   0.9588 B( 19-C , 36-H ) :   0.9583 B( 19-C , 37-H ) :   0.9599
B( 32-H , 39-O ) :   0.7090 B( 38-O , 39-O ) :   1.3552

Dispersion correction           -0.017058878
FINAL SINGLE POINT ENERGY      -996.556472336829

DIPOLE MOMENT
-------------

Method             : SCF
Type of density    : Electron Density
Multiplicity       :   2
Irrep              :   0
Energy             :  -996.5394134588409543 Eh
Relativity type    :
Basis              : AO
                                X                 Y                 Z
Electronic contribution:     -2.174721597       7.080100649      -4.464145702
Nuclear contribution   :      0.883313389      -9.794827020       7.175039362
                        -----------------------------------------
Total Dipole Moment    :     -1.291408208      -2.714726371       2.710893660
                        -----------------------------------------
Magnitude (a.u.)       :      4.048014188
Magnitude (Debye)      :     10.289234366

Rotational constants in cm-1:             0.010479             0.005419             0.003722
Rotational constants in MHz :           314.158582           162.445282           111.583861

                             ****ORCA TERMINATED NORMALLY****
TOTAL RUN TIME: 0 days 0 hours 59 minutes 0 seconds 209 msec
