                         Program Version 6.0.1  -  RELEASE   -
|  1> ! B3LYP def2-SVP OPT TightSCF D3BJ
|  2>
|  3>
|  4> %maxcore 4000
|  5>
|  6> %pal
|  7> nprocs 28
|  8> end
|  9>
| 10> * xyz 0 1
| 11> O        2.7210600761      1.0832376383     -0.0001510332
| 12> O        2.7210794396     -1.0832419814     -0.0004122870
| 13> N        2.1503728454     -0.0000218379     -0.0001593443
| 14> N       -3.4745380812      0.0000055801      0.0012848393
| 15> C        0.6905288595     -0.0000018501      0.0000891668
| 16> C       -2.1103810173     -0.0000001179      0.0004401593
| 17> C        0.0003351126      1.2162003143      0.0003383714
| 18> C        0.0003360811     -1.2162025009      0.0000061340
| 19> C       -1.3858459997      1.2163606335      0.0005047746
| 20> C       -1.3858468463     -1.2163598600      0.0001728853
| 21> H        0.5691142954      2.1455814069      0.0003548830
| 22> H        0.5691223088     -2.1455809175     -0.0002270924
| 23> H       -1.9290788518      2.1648181612      0.0007315711
| 24> H       -1.9290857576     -2.1648142635      0.0001370269
| 25> H       -3.9941298338      0.8654646063     -0.0030400889
| 26> H       -3.9941426307     -0.8654450113     -0.0032699658
| 27> O       -3.9734051077      0.0422363015     -2.7251756787
| 28> H       -3.2469409185      0.0764431024     -3.3623371872
| 29> H       -3.5221145033      0.1240744787     -1.8739588349
| 30> *
| 31>
| 32>
| 33>                          ****END OF INPUT****
 Total Charge           Charge          ....    0
 Multiplicity           Mult            ....    1
 Number of Electrons    NEL             ....   82
 Basis Dimension        Dim             ....  194

ORBITAL ENERGIES
----------------

  NO   OCC          E(Eh)            E(eV)
   0   2.0000     -19.150007      -521.0982
   1   2.0000     -19.149860      -521.0942
   2   2.0000     -19.107741      -519.9481
   3   2.0000     -14.548321      -395.8799
   4   2.0000     -14.378784      -391.2666
   5   2.0000     -10.269654      -279.4515
   6   2.0000     -10.238237      -278.5966
   7   2.0000     -10.220315      -278.1089
   8   2.0000     -10.220087      -278.1027
   9   2.0000     -10.214751      -277.9575
  10   2.0000     -10.214360      -277.9469
  11   2.0000      -1.209586       -32.9145
  12   2.0000      -1.034788       -28.1580
  13   2.0000      -0.975381       -26.5415
  14   2.0000      -0.953297       -25.9405
  15   2.0000      -0.874203       -23.7883
  16   2.0000      -0.788849       -21.4657
  17   2.0000      -0.770041       -20.9539
  18   2.0000      -0.690625       -18.7929
  19   2.0000      -0.644928       -17.5494
  20   2.0000      -0.599120       -16.3029
  21   2.0000      -0.562883       -15.3168
  22   2.0000      -0.558545       -15.1988
  23   2.0000      -0.536261       -14.5924
  24   2.0000      -0.530192       -14.4273
  25   2.0000      -0.511136       -13.9087
  26   2.0000      -0.498119       -13.5545
  27   2.0000      -0.466640       -12.6979
  28   2.0000      -0.463658       -12.6168
  29   2.0000      -0.450395       -12.2559
  30   2.0000      -0.429424       -11.6852
  31   2.0000      -0.422610       -11.4998
  32   2.0000      -0.373658       -10.1678
  33   2.0000      -0.365631        -9.9493
  34   2.0000      -0.343463        -9.3461
  35   2.0000      -0.302522        -8.2320
  36   2.0000      -0.301308        -8.1990
  37   2.0000      -0.286564        -7.7978
  38   2.0000      -0.283633        -7.7180
  39   2.0000      -0.283097        -7.7035
  40   2.0000      -0.241498        -6.5715
  41   0.0000      -0.079196        -2.1550
  42   0.0000      -0.034519        -0.9393
  43   0.0000       0.008451         0.2300
  44   0.0000       0.026916         0.7324
  45   0.0000       0.061508         1.6737

MULLIKEN ATOMIC CHARGES
-----------------------
   0 O :   -0.253641
   1 O :   -0.253318
   2 N :    0.236363
   3 N :   -0.062773
   4 C :    0.165683
   5 C :    0.061128
   6 C :   -0.017482
   7 C :   -0.017921
   8 C :   -0.019863
   9 C :   -0.014767
  10 H :    0.007325
  11 H :    0.007445
  12 H :   -0.025926
  13 H :   -0.025006
  14 H :    0.130563
  15 H :    0.130923
  16 O :   -0.308053
  17 H :    0.149316
  18 H :    0.110005
Sum of atomic charges:    0.0000000

LOEWDIN ATOMIC CHARGES
----------------------
   0 O :   -0.219013
   1 O :   -0.218699
   2 N :    0.277471
   3 N :    0.028381
   4 C :   -0.057073
   5 C :    0.030779
   6 C :    0.011990
   7 C :    0.012095
   8 C :   -0.061863
   9 C :   -0.058813
  10 H :    0.042620
  11 H :    0.042693
  12 H :    0.029007
  13 H :    0.029730
  14 H :    0.082988
  15 H :    0.084305
  16 O :   -0.163576
  17 H :    0.074731
  18 H :    0.032248

  Mayer bond orders larger than 0.100000
B(  0-O ,  1-O ) :   0.2690 B(  0-O ,  2-N ) :   1.5342 B(  1-O ,  2-N ) :   1.5345
B(  2-N ,  4-C ) :   0.8859 B(  3-N ,  5-C ) :   1.2286 B(  3-N , 14-H ) :   0.9424
B(  3-N , 15-H ) :   0.9422 B(  4-C ,  6-C ) :   1.3484 B(  4-C ,  7-C ) :   1.3472
B(  5-C ,  8-C ) :   1.2901 B(  5-C ,  9-C ) :   1.2918 B(  6-C ,  8-C ) :   1.3851
B(  6-C , 10-H ) :   0.9804 B(  7-C ,  9-C ) :   1.3864 B(  7-C , 11-H ) :   0.9804
B(  8-C , 12-H ) :   0.9877 B(  9-C , 13-H ) :   0.9879 B( 16-O , 17-H ) :   1.0016
B( 16-O , 18-H ) :   0.9834

Dispersion correction           -0.032616210
FINAL SINGLE POINT ENERGY      -567.842871739402
Dispersion correction             ... done (  0.0 sec)
Dispersion correction           -0.032411371
FINAL SINGLE POINT ENERGY      -567.844105343563
Dispersion correction             ... done (  0.0 sec)
Dispersion correction           -0.032234837
FINAL SINGLE POINT ENERGY      -567.844793700228
Dispersion correction             ... done (  0.0 sec)
FINAL SINGLE POINT ENERGY      -567.844387464889
FINAL SINGLE POINT ENERGY      -567.845145254767
FINAL SINGLE POINT ENERGY      -567.845179399437
FINAL SINGLE POINT ENERGY      -567.845234050657
FINAL SINGLE POINT ENERGY      -567.845277151438
FINAL SINGLE POINT ENERGY      -567.845419002727
FINAL SINGLE POINT ENERGY      -567.845619494642
FINAL SINGLE POINT ENERGY      -567.849815913939
FINAL SINGLE POINT ENERGY      -567.849903914898
FINAL SINGLE POINT ENERGY      -567.850014013586
FINAL SINGLE POINT ENERGY      -567.850208847792
FINAL SINGLE POINT ENERGY      -567.850351789255
FINAL SINGLE POINT ENERGY      -567.850434844005
FINAL SINGLE POINT ENERGY      -567.850572404014
Dispersion correction           -0.032921672
FINAL SINGLE POINT ENERGY      -567.850640292293
Dispersion correction             ... done (  0.0 sec)
Dispersion correction           -0.032887789
FINAL SINGLE POINT ENERGY      -567.850771184565
Dispersion correction             ... done (  0.0 sec)

CARTESIAN COORDINATES (ANGSTROEM)
---------------------------------
  O      2.771979    0.931959    0.305904
  O      2.609950   -1.134396   -0.323691
  N      2.125285   -0.055230   -0.014187
  N     -3.500498    0.406580   -0.115066
  C      0.664853    0.063666   -0.028763
  C     -2.116382    0.286748   -0.051003
  C      0.072826    1.278410    0.321616
  C     -0.111536   -1.039516   -0.394821
  C     -1.312571    1.386585    0.309262
  C     -1.494814   -0.930081   -0.409295
  H      0.706576    2.118706    0.602766
  H      0.387907   -1.969269   -0.666192
  H     -1.784299    2.333026    0.586141
  H     -2.115744   -1.767208   -0.731798
  H     -3.900153    1.201287    0.364774
  H     -4.026009   -0.448252    0.035059
  O     -3.762618   -1.109420   -2.610117
  H     -2.904568   -1.023975   -3.047079
  H     -3.833744   -0.286867   -2.098183

Dispersion correction           -0.032878328
FINAL SINGLE POINT ENERGY      -567.850894199522
Dispersion correction             ... done (  0.0 sec)
                             ****ORCA TERMINATED NORMALLY****
TOTAL RUN TIME: 0 days 0 hours 10 minutes 43 seconds 980 msec
