                         Program Version 6.0.1  -  RELEASE   -
|  1> ! B3LYP def2-SVP OPT TightSCF D3BJ
|  2>
|  3>
|  4> %maxcore 4000
|  5>
|  6> %pal
|  7> nprocs 28
|  8> end
|  9>
| 10> * xyz 0 1
| 11> N       -2.3947729961     -0.0001474642      0.0025915561
| 12> C       -1.0200608510     -0.0000289878      0.0010976808
| 13> C       -0.2945157800      1.2101059748      0.0007086406
| 14> C       -0.2943079148     -1.2100407791      0.0007349659
| 15> C        1.0991996843      1.2029432329      0.0000689553
| 16> C        1.0994069845     -1.2026382846      0.0000976501
| 17> C        1.8128645108      0.0002133039     -0.0002414326
| 18> H       -0.8369807370      2.1600809974      0.0010002733
| 19> H       -0.8366059466     -2.1601114428      0.0010469186
| 20> H        1.6355670952      2.1558960203     -0.0002260275
| 21> H        1.6359340076     -2.1555013744     -0.0001741080
| 22> H        2.9047834001      0.0003104149     -0.0007757069
| 23> H       -2.9122831349     -0.8657023728     -0.0032016159
| 24> H       -2.9124283218      0.8653207617     -0.0032277497
| 25> O       -2.9580995839      0.0683457361      2.8517910585
| 26> H       -2.1780277215      0.0329754620      3.4219896933
| 27> H       -2.5786623702      0.0901756436      1.9627601783
| 28> *
| 29>
| 30>
| 31>                          ****END OF INPUT****
 Total Charge           Charge          ....    0
 Multiplicity           Mult            ....    1
 Number of Electrons    NEL             ....   60
 Basis Dimension        Dim             ....  157

ORBITAL ENERGIES
----------------

  NO   OCC          E(Eh)            E(eV)
   0   2.0000     -19.093105      -519.5498
   1   2.0000     -14.349210      -390.4618
   2   2.0000     -10.234751      -278.5017
   3   2.0000     -10.188260      -277.2366
   4   2.0000     -10.188229      -277.2358
   5   2.0000     -10.184243      -277.1273
   6   2.0000     -10.184181      -277.1257
   7   2.0000     -10.177389      -276.9408
   8   2.0000      -0.957048       -26.0426
   9   2.0000      -0.922622       -25.1058
  10   2.0000      -0.829445       -22.5703
  11   2.0000      -0.736002       -20.0276
  12   2.0000      -0.720327       -19.6011
  13   2.0000      -0.610773       -16.6200
  14   2.0000      -0.600855       -16.3501
  15   2.0000      -0.531245       -14.4559
  16   2.0000      -0.526034       -14.3141
  17   2.0000      -0.492381       -13.3984
  18   2.0000      -0.480030       -13.0623
  19   2.0000      -0.434716       -11.8292
  20   2.0000      -0.432658       -11.7732
  21   2.0000      -0.418176       -11.3791
  22   2.0000      -0.394147       -10.7253
  23   2.0000      -0.360824        -9.8185
  24   2.0000      -0.347210        -9.4481
  25   2.0000      -0.342697        -9.3253
  26   2.0000      -0.315851        -8.5948
  27   2.0000      -0.270313        -7.3556
  28   2.0000      -0.253837        -6.9072
  29   2.0000      -0.209437        -5.6991
  30   0.0000      -0.006213        -0.1691
  31   0.0000       0.010183         0.2771
  32   0.0000       0.044791         1.2188
  33   0.0000       0.068055         1.8519
  34   0.0000       0.081629         2.2212

MULLIKEN ATOMIC CHARGES
-----------------------
   0 N :   -0.091720
   1 C :    0.053499
   2 C :   -0.023590
   3 C :   -0.022494
   4 C :    0.017075
   5 C :    0.016953
   6 C :    0.011590
   7 H :   -0.043297
   8 H :   -0.043304
   9 H :   -0.018890
  10 H :   -0.018968
  11 H :   -0.023838
  12 H :    0.121809
  13 H :    0.122713
  14 O :   -0.314084
  15 H :    0.146555
  16 H :    0.109991
Sum of atomic charges:   -0.0000000

LOEWDIN ATOMIC CHARGES
----------------------
   0 N :    0.000981
   1 C :    0.015522
   2 C :   -0.071089
   3 C :   -0.070345
   4 C :   -0.013950
   5 C :   -0.014027
   6 C :   -0.060912
   7 H :    0.020929
   8 H :    0.021018
   9 H :    0.027190
  10 H :    0.027164
  11 H :    0.023856
  12 H :    0.076316
  13 H :    0.075874
  14 O :   -0.166162
  15 H :    0.073044
  16 H :    0.034589

  Mayer bond orders larger than 0.100000
B(  0-N ,  1-C ) :   1.1762 B(  0-N , 12-H ) :   0.9465 B(  0-N , 13-H ) :   0.9461
B(  0-N , 16-H ) :   0.1103 B(  1-C ,  2-C ) :   1.3347 B(  1-C ,  3-C ) :   1.3354
B(  2-C ,  4-C ) :   1.4022 B(  2-C ,  7-H ) :   0.9841 B(  3-C ,  5-C ) :   1.4024
B(  3-C ,  8-H ) :   0.9842 B(  4-C ,  6-C ) :   1.3736 B(  4-C ,  9-H ) :   0.9782
B(  5-C ,  6-C ) :   1.3733 B(  5-C , 10-H ) :   0.9782 B(  6-C , 11-H ) :   0.9874
B( 14-O , 15-H ) :   1.0049 B( 14-O , 16-H ) :   0.9781

Dispersion correction           -0.026273451
FINAL SINGLE POINT ENERGY      -363.571298084760
Dispersion correction             ... done (  0.1 sec)
Dispersion correction           -0.026171203
FINAL SINGLE POINT ENERGY      -363.571611729192
Dispersion correction             ... done (  0.0 sec)
Dispersion correction           -0.026085655
FINAL SINGLE POINT ENERGY      -363.571771357769
Dispersion correction             ... done (  0.1 sec)
FINAL SINGLE POINT ENERGY      -363.571871276739
FINAL SINGLE POINT ENERGY      -363.571967294410
FINAL SINGLE POINT ENERGY      -363.572122969666
FINAL SINGLE POINT ENERGY      -363.572384572815
FINAL SINGLE POINT ENERGY      -363.572717823802
FINAL SINGLE POINT ENERGY      -363.573087624482
FINAL SINGLE POINT ENERGY      -363.573632101086
FINAL SINGLE POINT ENERGY      -363.576280810996
FINAL SINGLE POINT ENERGY      -363.576370595673
FINAL SINGLE POINT ENERGY      -363.576396605950
FINAL SINGLE POINT ENERGY      -363.576440900122
FINAL SINGLE POINT ENERGY      -363.576496954889
FINAL SINGLE POINT ENERGY      -363.576579765299
FINAL SINGLE POINT ENERGY      -363.576693483561
Dispersion correction           -0.027427332
FINAL SINGLE POINT ENERGY      -363.576786078908
Dispersion correction             ... done (  0.0 sec)
Dispersion correction           -0.027356356
FINAL SINGLE POINT ENERGY      -363.576858722046
Dispersion correction             ... done (  0.1 sec)

CARTESIAN COORDINATES (ANGSTROEM)
---------------------------------
  N     -2.520841    0.197791    0.021185
  C     -1.123964    0.149725    0.020439
  C     -0.348750    1.311418   -0.145733
  C     -0.473178   -1.070287    0.269851
  C      1.042813    1.249998   -0.066738
  C      0.918886   -1.122278    0.341672
  C      1.688070    0.033629    0.174648
  H     -0.845510    2.267517   -0.335029
  H     -1.068490   -1.972831    0.429764
  H      1.628312    2.163432   -0.199520
  H      1.408086   -2.080517    0.534076
  H      2.777462   -0.013159    0.233437
  H     -2.967867   -0.635707   -0.366510
  H     -2.910596    1.052204   -0.373841
  O     -2.306204   -0.558688    2.881973
  H     -1.342810   -0.546414    2.808968
  H     -2.584409   -0.233636    2.007399

Dispersion correction           -0.027399800
FINAL SINGLE POINT ENERGY      -363.576846941366
Dispersion correction             ... done (  0.1 sec)
                             ****ORCA TERMINATED NORMALLY****
TOTAL RUN TIME: 0 days 0 hours 7 minutes 44 seconds 520 msec
