                         Program Version 6.0.1  -  RELEASE   -
|  1> ! B3LYP def2-SVP SP TightSCF ALLPOP KEEPDENS ChelpG
|  2>
|  3> %maxcore 5000
|  4>
|  5> %pal
|  6> nprocs 20
|  7> end
|  8>
|  9> * xyz 0 1
| 10>   N          -2.39477299613526     -0.00014746416076      0.00259155610327
| 11>   C          -1.02006085102483     -0.00002898782985      0.00109768082725
| 12>   C          -0.29451578003690      1.21010597484804      0.00070864056743
| 13>   C          -0.29430791483652     -1.21004077914909      0.00073496591759
| 14>   C           1.09919968425860      1.20294323285157      0.00006895525262
| 15>   C           1.09940698448867     -1.20263828463898      0.00009765014726
| 16>   C           1.81286451075136      0.00021330386914     -0.00024143264361
| 17>   H          -0.83698073701803      2.16008099735458      0.00100027329149
| 18>   H          -0.83660594655977     -2.16011144279987      0.00104691858265
| 19>   H           1.63556709517397      2.15589602034020     -0.00022602752111
| 20>   H           1.63593400755151     -2.15550137440929     -0.00017410803890
| 21>   H           2.90478340008884      0.00031041490686     -0.00077570690125
| 22>   H          -2.91228313491186     -0.86570237283610     -0.00320161588796
| 23>   H          -2.91242832178980      0.86532076165356     -0.00322774969673
| 24> *
| 25>
| 26>                          ****END OF INPUT****

CARTESIAN COORDINATES (ANGSTROEM)
---------------------------------
  N     -2.394773   -0.000147    0.002592
  C     -1.020061   -0.000029    0.001098
  C     -0.294516    1.210106    0.000709
  C     -0.294308   -1.210041    0.000735
  C      1.099200    1.202943    0.000069
  C      1.099407   -1.202638    0.000098
  C      1.812865    0.000213   -0.000241
  H     -0.836981    2.160081    0.001000
  H     -0.836606   -2.160111    0.001047
  H      1.635567    2.155896   -0.000226
  H      1.635934   -2.155501   -0.000174
  H      2.904783    0.000310   -0.000776
  H     -2.912283   -0.865702   -0.003202
  H     -2.912428    0.865321   -0.003228

 Total Charge           Charge          ....    0
 Multiplicity           Mult            ....    1
 Number of Electrons    NEL             ....   50
 Basis Dimension        Dim             ....  133

ORBITAL ENERGIES
----------------

  NO   OCC          E(Eh)            E(eV)
   0   2.0000     -14.330581      -389.9549
   1   2.0000     -10.221488      -278.1408
   2   2.0000     -10.176944      -276.9287
   3   2.0000     -10.176931      -276.9284
   4   2.0000     -10.171338      -276.7762
   5   2.0000     -10.171336      -276.7761
   6   2.0000     -10.165123      -276.6071
   7   2.0000      -0.904211       -24.6048
   8   2.0000      -0.816393       -22.2152
   9   2.0000      -0.723963       -19.7000
  10   2.0000      -0.706919       -19.2362
  11   2.0000      -0.597723       -16.2649
  12   2.0000      -0.587031       -15.9739
  13   2.0000      -0.517847       -14.0913
  14   2.0000      -0.510338       -13.8870
  15   2.0000      -0.467641       -12.7252
  16   2.0000      -0.421739       -11.4761
  17   2.0000      -0.421169       -11.4606
  18   2.0000      -0.406837       -11.0706
  19   2.0000      -0.376846       -10.2545
  20   2.0000      -0.349175        -9.5015
  21   2.0000      -0.331262        -9.0141
  22   2.0000      -0.303839        -8.2679
  23   2.0000      -0.242085        -6.5875
  24   2.0000      -0.192687        -5.2433
  25   0.0000       0.005664         0.1541
  26   0.0000       0.025166         0.6848
  27   0.0000       0.055234         1.5030
  28   0.0000       0.077209         2.1010
  29   0.0000       0.089486         2.4350

MULLIKEN ATOMIC CHARGES
-----------------------
   0 N :   -0.082688
   1 C :    0.086530
   2 C :   -0.035654
   3 C :   -0.035654
   4 C :    0.016066
   5 C :    0.016065
   6 C :    0.007017
   7 H :   -0.051735
   8 H :   -0.051734
   9 H :   -0.024784
  10 H :   -0.024784
  11 H :   -0.030024
  12 H :    0.105689
  13 H :    0.105689
Sum of atomic charges:   -0.0000000

LOEWDIN ATOMIC CHARGES
----------------------
   0 N :   -0.023666
   1 C :    0.030283
   2 C :   -0.075527
   3 C :   -0.075527
   4 C :   -0.016541
   5 C :   -0.016541
   6 C :   -0.069028
   7 H :    0.017467
   8 H :    0.017467
   9 H :    0.024548
  10 H :    0.024548
  11 H :    0.021059
  12 H :    0.070730
  13 H :    0.070730

  Mayer bond orders larger than 0.100000
B(  0-N ,  1-C ) :   1.2388 B(  0-N , 12-H ) :   0.9509 B(  0-N , 13-H ) :   0.9509
B(  1-C ,  2-C ) :   1.3200 B(  1-C ,  3-C ) :   1.3200 B(  2-C ,  4-C ) :   1.4065
B(  2-C ,  7-H ) :   0.9835 B(  3-C ,  5-C ) :   1.4065 B(  3-C ,  8-H ) :   0.9835
B(  4-C ,  6-C ) :   1.3714 B(  4-C ,  9-H ) :   0.9783 B(  5-C ,  6-C ) :   1.3714
B(  5-C , 10-H ) :   0.9783 B(  6-C , 11-H ) :   0.9870

FINAL SINGLE POINT ENERGY      -287.217342639121

DIPOLE MOMENT
-------------

Method             : SCF
Type of density    : Electron Density
Multiplicity       :   1
Irrep              :   0
Energy             :  -287.2173426391205453 Eh
Relativity type    :
Basis              : AO
                                X                 Y                 Z
Electronic contribution:     -0.016834269      -0.000001351       0.002916372
Nuclear contribution   :     -0.828688457      -0.000071003      -0.009457466
                        -----------------------------------------
Total Dipole Moment    :     -0.845522726      -0.000072354      -0.006541094
                        -----------------------------------------
Magnitude (a.u.)       :      0.845548030
Magnitude (Debye)      :      2.149212293

Rotational constants in cm-1:             0.186865             0.086257             0.059016
Rotational constants in MHz :          5602.067849          2585.928245          1769.242666

                             ****ORCA TERMINATED NORMALLY****
TOTAL RUN TIME: 0 days 0 hours 0 minutes 7 seconds 263 msec
