                         Program Version 6.0.1  -  RELEASE   -
|  1> # avogadro generated ORCA input file
|  2> # Basic Mode
|  3> #
|  4> ! B3LYP def2-SVP SP TightSCF ALLPOP KEEPDENS ChelpG
|  5>
|  6> %maxcore 5000
|  7>
|  8> %pal
|  9> nprocs 20
| 10> end
| 11>
| 12> * xyz 0 1
| 13>    C        3.36385       -1.99584        0.38646
| 14>    C        3.66055       -0.57285        0.43521
| 15>    C        3.24083        0.19236        1.52993
| 16>    C        2.65579       -2.60009        1.43242
| 17>    C        3.06154       -2.34719       -0.99412
| 18>    C        3.52891       -0.04432       -0.91554
| 19>    C        2.68634        1.51935        1.31924
| 20>    C        2.49219       -0.43431        2.60563
| 21>    C        1.61945       -3.57839        1.13966
| 22>    C        2.20962       -1.80097        2.56343
| 23>    C        2.06732       -3.28952       -1.27468
| 24>    C        3.16250       -1.13814       -1.79683
| 25>    C        2.96525        1.21888       -1.11221
| 26>    C        1.58281        1.70918        2.24615
| 27>    C        2.55208        2.00833        0.02176
| 28>    C        1.46576        0.50539        3.03265
| 29>    C        1.33369       -3.91928       -0.18663
| 30>    C        0.53446       -3.38568        2.09143
| 31>    C        0.89500       -2.28044        2.96586
| 32>    C        1.13794       -3.06222       -2.37168
| 33>    C        2.25990       -0.90971       -2.83933
| 34>    C        2.00935        1.46506       -2.17527
| 35>    C        0.46725        2.47722        1.87801
| 36>    C        1.41956        2.82563       -0.34340
| 37>    C        0.20174        0.05572        3.39970
| 38>    C       -0.04719       -4.08725       -0.61375
| 39>    C       -0.79306       -3.54695        1.68045
| 40>    C       -0.08459       -1.37201        3.38264
| 41>    C       -0.16724       -3.56163       -1.96546
| 42>    C        1.23252       -1.89436       -3.13820
| 43>    C        1.68026        0.41383       -3.03167
| 44>    C        1.00726        2.43337       -1.70273
| 45>    C        0.57561        3.29583        0.66903
| 46>    C       -0.88661        1.96651        2.18929
| 47>    C       -0.98028        0.78308        2.96108
| 48>    C       -1.08994       -3.90896        0.30161
| 49>    C       -1.81255       -2.61139        2.12910
| 50>    C       -1.45957       -1.53957        2.95751
| 51>    C       -1.32709       -2.88258       -2.35126
| 52>    C        0.02672       -1.18089       -3.52921
| 53>    C        0.30692        0.24734       -3.45636
| 54>    C       -0.33714        2.27445       -2.12066
| 55>    C       -1.50375        3.04089        0.03062
| 56>    C       -1.90782        2.18383        1.14331
| 57>    C       -2.01310       -0.21479        2.71689
| 58>    C       -2.29807       -3.20460       -0.09952
| 59>    C       -2.74662       -2.40642        1.03166
| 60>    C       -2.41515       -2.70096       -1.40056
| 61>    C       -1.22687       -1.67322       -3.15453
| 62>    C       -0.66507        1.14123       -3.00315
| 63>    C       -1.51406        2.47096       -1.24894
| 64>    C       -2.83732        1.16909        0.87888
| 65>    C       -2.91733       -0.03068        1.67699
| 66>    C       -3.29656       -1.14096        0.81622
| 67>    C       -2.99147       -1.38385       -1.62202
| 68>    C       -2.25031       -0.74901       -2.70222
| 69>    C       -1.96738        0.61833       -2.63686
| 70>    C       -2.44353        1.40100       -1.52375
| 71>    C       -3.16361        0.80567       -0.48959
| 72>    C       -3.43391       -0.62162       -0.53423
| 73>    H        1.01079        5.70594        4.39439
| 74>    C       -0.02502        6.07921        4.37886
| 75>    H       -0.14197        6.80711        5.19798
| 76>    H        0.31794        7.60819        2.86708
| 77>    C       -0.34142        6.74847        3.05268
| 78>    O       -0.09377        5.86121        1.93801
| 79>    H       -0.70881        5.23855        4.56885
| 80>    C       -1.06593        5.01385        1.58305
| 81>    C       -0.59369        4.18199        0.36495
| 82>    O       -2.14368        4.93390        2.10853
| 83>    H       -1.38979        7.07988        3.01259
| 84>    C       -0.37576        5.20146       -0.77482
| 85>    H       -3.62271        6.46433       -2.59559
| 86>    O       -1.54600        5.77178       -1.08241
| 87>    H       -1.12736        6.33894       -3.03390
| 88>    O        0.67586        5.47844       -1.28485
| 89>    C       -1.53396        6.78416       -2.11160
| 90>    C       -2.95187        7.28288       -2.29224
| 91>    H       -2.97708        8.05869       -3.07354
| 92>    H       -3.33996        7.71875       -1.35860
| 93>    H       -0.84376        7.58709       -1.80568
| 94> *
| 95>
| 96>
| 97>                          ****END OF INPUT****

CARTESIAN COORDINATES (ANGSTROEM)
---------------------------------
  C      3.363850   -1.995840    0.386460
  C      3.660550   -0.572850    0.435210
  C      3.240830    0.192360    1.529930
  C      2.655790   -2.600090    1.432420
  C      3.061540   -2.347190   -0.994120
  C      3.528910   -0.044320   -0.915540
  C      2.686340    1.519350    1.319240
  C      2.492190   -0.434310    2.605630
  C      1.619450   -3.578390    1.139660
  C      2.209620   -1.800970    2.563430
  C      2.067320   -3.289520   -1.274680
  C      3.162500   -1.138140   -1.796830
  C      2.965250    1.218880   -1.112210
  C      1.582810    1.709180    2.246150
  C      2.552080    2.008330    0.021760
  C      1.465760    0.505390    3.032650
  C      1.333690   -3.919280   -0.186630
  C      0.534460   -3.385680    2.091430
  C      0.895000   -2.280440    2.965860
  C      1.137940   -3.062220   -2.371680
  C      2.259900   -0.909710   -2.839330
  C      2.009350    1.465060   -2.175270
  C      0.467250    2.477220    1.878010
  C      1.419560    2.825630   -0.343400
  C      0.201740    0.055720    3.399700
  C     -0.047190   -4.087250   -0.613750
  C     -0.793060   -3.546950    1.680450
  C     -0.084590   -1.372010    3.382640
  C     -0.167240   -3.561630   -1.965460
  C      1.232520   -1.894360   -3.138200
  C      1.680260    0.413830   -3.031670
  C      1.007260    2.433370   -1.702730
  C      0.575610    3.295830    0.669030
  C     -0.886610    1.966510    2.189290
  C     -0.980280    0.783080    2.961080
  C     -1.089940   -3.908960    0.301610
  C     -1.812550   -2.611390    2.129100
  C     -1.459570   -1.539570    2.957510
  C     -1.327090   -2.882580   -2.351260
  C      0.026720   -1.180890   -3.529210
  C      0.306920    0.247340   -3.456360
  C     -0.337140    2.274450   -2.120660
  C     -1.503750    3.040890    0.030620
  C     -1.907820    2.183830    1.143310
  C     -2.013100   -0.214790    2.716890
  C     -2.298070   -3.204600   -0.099520
  C     -2.746620   -2.406420    1.031660
  C     -2.415150   -2.700960   -1.400560
  C     -1.226870   -1.673220   -3.154530
  C     -0.665070    1.141230   -3.003150
  C     -1.514060    2.470960   -1.248940
  C     -2.837320    1.169090    0.878880
  C     -2.917330   -0.030680    1.676990
  C     -3.296560   -1.140960    0.816220
  C     -2.991470   -1.383850   -1.622020
  C     -2.250310   -0.749010   -2.702220
  C     -1.967380    0.618330   -2.636860
  C     -2.443530    1.401000   -1.523750
  C     -3.163610    0.805670   -0.489590
  C     -3.433910   -0.621620   -0.534230
  H      1.010790    5.705940    4.394390
  C     -0.025020    6.079210    4.378860
  H     -0.141970    6.807110    5.197980
  H      0.317940    7.608190    2.867080
  C     -0.341420    6.748470    3.052680
  O     -0.093770    5.861210    1.938010
  H     -0.708810    5.238550    4.568850
  C     -1.065930    5.013850    1.583050
  C     -0.593690    4.181990    0.364950
  O     -2.143680    4.933900    2.108530
  H     -1.389790    7.079880    3.012590
  C     -0.375760    5.201460   -0.774820
  H     -3.622710    6.464330   -2.595590
  O     -1.546000    5.771780   -1.082410
  H     -1.127360    6.338940   -3.033900
  O      0.675860    5.478440   -1.284850
  C     -1.533960    6.784160   -2.111600
  C     -2.951870    7.282880   -2.292240
  H     -2.977080    8.058690   -3.073540
  H     -3.339960    7.718750   -1.358600
  H     -0.843760    7.587090   -1.805680

 Total Charge           Charge          ....    0
 Multiplicity           Mult            ....    1
 Number of Electrons    NEL             ....  444
 Basis Dimension        Dim             .... 1044

ORBITAL ENERGIES
----------------

  NO   OCC          E(Eh)            E(eV)
   0   2.0000     -19.194913      -522.3201
   1   2.0000     -19.193690      -522.2869
   2   2.0000     -19.142480      -520.8934
   3   2.0000     -19.141055      -520.8546
   4   2.0000     -10.336060      -281.2585
   5   2.0000     -10.335001      -281.2297
   6   2.0000     -10.258167      -279.1389
   7   2.0000     -10.257341      -279.1164
   8   2.0000     -10.249530      -278.9039
   9   2.0000     -10.245221      -278.7866
  10   2.0000     -10.244869      -278.7771
  11   2.0000     -10.241618      -278.6886
  12   2.0000     -10.238609      -278.6067
  13   2.0000     -10.237789      -278.5844
  14   2.0000     -10.237302      -278.5711
  15   2.0000     -10.236538      -278.5504
  16   2.0000     -10.229721      -278.3649
  17   2.0000     -10.229578      -278.3610
  18   2.0000     -10.228501      -278.3317
  19   2.0000     -10.227603      -278.3072
  20   2.0000     -10.227589      -278.3069
  21   2.0000     -10.227586      -278.3068
  22   2.0000     -10.227485      -278.3040
  23   2.0000     -10.227471      -278.3036
  24   2.0000     -10.227460      -278.3033
  25   2.0000     -10.227438      -278.3027
  26   2.0000     -10.227429      -278.3025
  27   2.0000     -10.227284      -278.2986
  28   2.0000     -10.227213      -278.2966
  29   2.0000     -10.227192      -278.2960
  30   2.0000     -10.227172      -278.2955
  31   2.0000     -10.227165      -278.2953
  32   2.0000     -10.227097      -278.2934
  33   2.0000     -10.227054      -278.2923
  34   2.0000     -10.227032      -278.2917
  35   2.0000     -10.227016      -278.2912
  36   2.0000     -10.226997      -278.2907
  37   2.0000     -10.226974      -278.2901
  38   2.0000     -10.226941      -278.2892
  39   2.0000     -10.226851      -278.2868
  40   2.0000     -10.226786      -278.2850
  41   2.0000     -10.226785      -278.2850
  42   2.0000     -10.226724      -278.2833
  43   2.0000     -10.226712      -278.2830
  44   2.0000     -10.226640      -278.2810
  45   2.0000     -10.226565      -278.2790
  46   2.0000     -10.226436      -278.2755
  47   2.0000     -10.226412      -278.2748
  48   2.0000     -10.226280      -278.2712
  49   2.0000     -10.226241      -278.2702
  50   2.0000     -10.226220      -278.2696
  51   2.0000     -10.226138      -278.2674
  52   2.0000     -10.226091      -278.2661
  53   2.0000     -10.226046      -278.2649
  54   2.0000     -10.226027      -278.2643
  55   2.0000     -10.225800      -278.2582
  56   2.0000     -10.225580      -278.2522
  57   2.0000     -10.225144      -278.2403
  58   2.0000     -10.225118      -278.2396
  59   2.0000     -10.224996      -278.2363
  60   2.0000     -10.224800      -278.2310
  61   2.0000     -10.224794      -278.2308
  62   2.0000     -10.224380      -278.2195
  63   2.0000     -10.224266      -278.2164
  64   2.0000     -10.224143      -278.2131
  65   2.0000     -10.223546      -278.1968
  66   2.0000     -10.222756      -278.1753
  67   2.0000     -10.222341      -278.1640
  68   2.0000     -10.221702      -278.1466
  69   2.0000     -10.197134      -277.4781
  70   2.0000     -10.195747      -277.4404
  71   2.0000      -1.118829       -30.4449
  72   2.0000      -1.110321       -30.2134
  73   2.0000      -1.028172       -27.9780
  74   2.0000      -1.025730       -27.9115
  75   2.0000      -0.960922       -26.1480
  76   2.0000      -0.942905       -25.6578
  77   2.0000      -0.941058       -25.6075
  78   2.0000      -0.940971       -25.6051
  79   2.0000      -0.908266       -24.7152
  80   2.0000      -0.906542       -24.6683
  81   2.0000      -0.904541       -24.6138
  82   2.0000      -0.903981       -24.5986
  83   2.0000      -0.901430       -24.5292
  84   2.0000      -0.871507       -23.7149
  85   2.0000      -0.865705       -23.5570
  86   2.0000      -0.864462       -23.5232
  87   2.0000      -0.838868       -22.8268
  88   2.0000      -0.838535       -22.8177
  89   2.0000      -0.832481       -22.6530
  90   2.0000      -0.832073       -22.6419
  91   2.0000      -0.811792       -22.0900
  92   2.0000      -0.790316       -21.5056
  93   2.0000      -0.783542       -21.3213
  94   2.0000      -0.782785       -21.3007
  95   2.0000      -0.782561       -21.2946
  96   2.0000      -0.781495       -21.2656
  97   2.0000      -0.778730       -21.1903
  98   2.0000      -0.770175       -20.9575
  99   2.0000      -0.769166       -20.9301
 100   2.0000      -0.765666       -20.8348
 101   2.0000      -0.764833       -20.8122
 102   2.0000      -0.738436       -20.0939
 103   2.0000      -0.719059       -19.5666
 104   2.0000      -0.710958       -19.3461
 105   2.0000      -0.708491       -19.2790
 106   2.0000      -0.707456       -19.2509
 107   2.0000      -0.705881       -19.2080
 108   2.0000      -0.699572       -19.0363
 109   2.0000      -0.697262       -18.9735
 110   2.0000      -0.691381       -18.8134
 111   2.0000      -0.672004       -18.2861
 112   2.0000      -0.662112       -18.0170
 113   2.0000      -0.660734       -17.9795
 114   2.0000      -0.654397       -17.8070
 115   2.0000      -0.640494       -17.4287
 116   2.0000      -0.631834       -17.1931
 117   2.0000      -0.622086       -16.9278
 118   2.0000      -0.620425       -16.8826
 119   2.0000      -0.619394       -16.8546
 120   2.0000      -0.618564       -16.8320
 121   2.0000      -0.617212       -16.7952
 122   2.0000      -0.613510       -16.6945
 123   2.0000      -0.605864       -16.4864
 124   2.0000      -0.597868       -16.2688
 125   2.0000      -0.578770       -15.7491
 126   2.0000      -0.571426       -15.5493
 127   2.0000      -0.561706       -15.2848
 128   2.0000      -0.555693       -15.1212
 129   2.0000      -0.553822       -15.0703
 130   2.0000      -0.550480       -14.9793
 131   2.0000      -0.541628       -14.7384
 132   2.0000      -0.537960       -14.6386
 133   2.0000      -0.532761       -14.4972
 134   2.0000      -0.530841       -14.4449
 135   2.0000      -0.527759       -14.3611
 136   2.0000      -0.526407       -14.3243
 137   2.0000      -0.517065       -14.0701
 138   2.0000      -0.516075       -14.0431
 139   2.0000      -0.510676       -13.8962
 140   2.0000      -0.507935       -13.8216
 141   2.0000      -0.500163       -13.6101
 142   2.0000      -0.494744       -13.4627
 143   2.0000      -0.491254       -13.3677
 144   2.0000      -0.488110       -13.2821
 145   2.0000      -0.486922       -13.2498
 146   2.0000      -0.480714       -13.0809
 147   2.0000      -0.476808       -12.9746
 148   2.0000      -0.474239       -12.9047
 149   2.0000      -0.469838       -12.7850
 150   2.0000      -0.465849       -12.6764
 151   2.0000      -0.465473       -12.6662
 152   2.0000      -0.462820       -12.5940
 153   2.0000      -0.459703       -12.5092
 154   2.0000      -0.457029       -12.4364
 155   2.0000      -0.453881       -12.3507
 156   2.0000      -0.453278       -12.3343
 157   2.0000      -0.450180       -12.2500
 158   2.0000      -0.449657       -12.2358
 159   2.0000      -0.447208       -12.1691
 160   2.0000      -0.446171       -12.1409
 161   2.0000      -0.444269       -12.0892
 162   2.0000      -0.437138       -11.8951
 163   2.0000      -0.435871       -11.8607
 164   2.0000      -0.432346       -11.7647
 165   2.0000      -0.431158       -11.7324
 166   2.0000      -0.428673       -11.6648
 167   2.0000      -0.427038       -11.6203
 168   2.0000      -0.421747       -11.4763
 169   2.0000      -0.420019       -11.4293
 170   2.0000      -0.418699       -11.3934
 171   2.0000      -0.414015       -11.2659
 172   2.0000      -0.413717       -11.2578
 173   2.0000      -0.412568       -11.2266
 174   2.0000      -0.410579       -11.1724
 175   2.0000      -0.410093       -11.1592
 176   2.0000      -0.407882       -11.0990
 177   2.0000      -0.406289       -11.0557
 178   2.0000      -0.404336       -11.0026
 179   2.0000      -0.404091       -10.9959
 180   2.0000      -0.402715       -10.9584
 181   2.0000      -0.398974       -10.8566
 182   2.0000      -0.392405       -10.6779
 183   2.0000      -0.384779       -10.4704
 184   2.0000      -0.375188       -10.2094
 185   2.0000      -0.373256       -10.1568
 186   2.0000      -0.369901       -10.0655
 187   2.0000      -0.367010        -9.9868
 188   2.0000      -0.364775        -9.9260
 189   2.0000      -0.361699        -9.8423
 190   2.0000      -0.361119        -9.8266
 191   2.0000      -0.358901        -9.7662
 192   2.0000      -0.357274        -9.7219
 193   2.0000      -0.355420        -9.6715
 194   2.0000      -0.354810        -9.6549
 195   2.0000      -0.354390        -9.6434
 196   2.0000      -0.353049        -9.6070
 197   2.0000      -0.352362        -9.5883
 198   2.0000      -0.350845        -9.5470
 199   2.0000      -0.347638        -9.4597
 200   2.0000      -0.339687        -9.2434
 201   2.0000      -0.339631        -9.2418
 202   2.0000      -0.333738        -9.0815
 203   2.0000      -0.332933        -9.0596
 204   2.0000      -0.322456        -8.7745
 205   2.0000      -0.320591        -8.7237
 206   2.0000      -0.307009        -8.3541
 207   2.0000      -0.288273        -7.8443
 208   2.0000      -0.272857        -7.4248
 209   2.0000      -0.272556        -7.4166
 210   2.0000      -0.272418        -7.4129
 211   2.0000      -0.272251        -7.4083
 212   2.0000      -0.271686        -7.3930
 213   2.0000      -0.270436        -7.3589
 214   2.0000      -0.269704        -7.3390
 215   2.0000      -0.265849        -7.2341
 216   2.0000      -0.263854        -7.1798
 217   2.0000      -0.222828        -6.0635
 218   2.0000      -0.222562        -6.0562
 219   2.0000      -0.222326        -6.0498
 220   2.0000      -0.221561        -6.0290
 221   2.0000      -0.221057        -6.0153
 222   0.0000      -0.123304        -3.3553
 223   0.0000      -0.122063        -3.3215
 224   0.0000      -0.121982        -3.3193
 225   0.0000      -0.082615        -2.2481
 226   0.0000      -0.081365        -2.2141

MULLIKEN ATOMIC CHARGES
-----------------------
   0 C :    0.000222
   1 C :   -0.003028
   2 C :    0.003843
   3 C :   -0.001190
   4 C :   -0.001159
   5 C :   -0.001764
   6 C :    0.009541
   7 C :    0.004057
   8 C :   -0.003013
   9 C :   -0.004230
  10 C :   -0.000433
  11 C :   -0.009950
  12 C :    0.022231
  13 C :   -0.030599
  14 C :   -0.009986
  15 C :    0.005076
  16 C :    0.000237
  17 C :    0.000360
  18 C :   -0.001806
  19 C :   -0.000901
  20 C :    0.007914
  21 C :   -0.010223
  22 C :    0.005135
  23 C :    0.024482
  24 C :   -0.013013
  25 C :   -0.002083
  26 C :   -0.002529
  27 C :    0.007212
  28 C :   -0.000815
  29 C :    0.001732
  30 C :   -0.011687
  31 C :    0.035026
  32 C :   -0.008197
  33 C :    0.048566
  34 C :   -0.033380
  35 C :   -0.000264
  36 C :    0.002164
  37 C :    0.001558
  38 C :   -0.000739
  39 C :    0.004271
  40 C :   -0.007351
  41 C :   -0.002686
  42 C :   -0.000769
  43 C :    0.059719
  44 C :   -0.006904
  45 C :   -0.003351
  46 C :   -0.004325
  47 C :    0.001001
  48 C :   -0.009671
  49 C :   -0.007107
  50 C :   -0.011886
  51 C :   -0.033377
  52 C :    0.002601
  53 C :    0.005135
  54 C :   -0.002465
  55 C :   -0.000331
  56 C :    0.015990
  57 C :   -0.002459
  58 C :    0.008791
  59 C :    0.002207
  60 H :    0.032918
  61 C :   -0.031774
  62 H :    0.025405
  63 H :    0.024899
  64 C :    0.189183
  65 O :   -0.306000
  66 H :    0.039267
  67 C :    0.234159
  68 C :   -0.161579
  69 O :   -0.174115
  70 H :    0.028741
  71 C :    0.235306
  72 H :    0.032528
  73 O :   -0.308285
  74 H :    0.026631
  75 O :   -0.176594
  76 C :    0.177544
  77 C :    0.000201
  78 H :    0.021981
  79 H :    0.030120
  80 H :    0.024066
Sum of atomic charges:   -0.0000000

LOEWDIN ATOMIC CHARGES
----------------------
   0 C :    0.000249
   1 C :   -0.001162
   2 C :   -0.001012
   3 C :   -0.001352
   4 C :   -0.000816
   5 C :   -0.000883
   6 C :   -0.001210
   7 C :   -0.000053
   8 C :   -0.000627
   9 C :   -0.000788
  10 C :   -0.001005
  11 C :   -0.001587
  12 C :    0.000176
  13 C :   -0.003913
  14 C :    0.001011
  15 C :   -0.003730
  16 C :   -0.000919
  17 C :   -0.001554
  18 C :    0.000132
  19 C :   -0.000519
  20 C :   -0.000139
  21 C :    0.002067
  22 C :   -0.010030
  23 C :    0.004086
  24 C :   -0.001327
  25 C :   -0.000711
  26 C :   -0.000321
  27 C :   -0.001176
  28 C :   -0.001341
  29 C :    0.000314
  30 C :   -0.003053
  31 C :    0.007309
  32 C :    0.030353
  33 C :   -0.001643
  34 C :   -0.000496
  35 C :   -0.000614
  36 C :   -0.000704
  37 C :   -0.000405
  38 C :   -0.000722
  39 C :   -0.000209
  40 C :   -0.003934
  41 C :   -0.008063
  42 C :    0.035380
  43 C :    0.010532
  44 C :   -0.002194
  45 C :   -0.001064
  46 C :   -0.000680
  47 C :    0.000051
  48 C :   -0.001969
  49 C :   -0.000109
  50 C :   -0.014486
  51 C :   -0.003323
  52 C :   -0.000611
  53 C :    0.000458
  54 C :   -0.001508
  55 C :   -0.001651
  56 C :   -0.002076
  57 C :   -0.003422
  58 C :    0.000433
  59 C :   -0.000595
  60 H :    0.030816
  61 C :   -0.065243
  62 H :    0.035564
  63 H :    0.025955
  64 C :    0.095700
  65 O :   -0.080308
  66 H :    0.033162
  67 C :    0.091819
  68 C :   -0.090657
  69 O :   -0.146968
  70 H :    0.022067
  71 C :    0.091333
  72 H :    0.032579
  73 O :   -0.083624
  74 H :    0.022904
  75 O :   -0.142308
  76 C :    0.097319
  77 C :   -0.060651
  78 H :    0.034692
  79 H :    0.031471
  80 H :    0.021527

  Mayer bond orders larger than 0.100000
B(  0-C ,  1-C ) :   1.1921 B(  0-C ,  3-C ) :   1.4322 B(  0-C ,  4-C ) :   1.1877
B(  1-C ,  2-C ) :   1.4331 B(  1-C ,  5-C ) :   1.1928 B(  2-C ,  6-C ) :   1.1969
B(  2-C ,  7-C ) :   1.1921 B(  3-C ,  8-C ) :   1.1890 B(  3-C ,  9-C ) :   1.1895
B(  4-C , 10-C ) :   1.4350 B(  4-C , 11-C ) :   1.1893 B(  5-C , 11-C ) :   1.1899
B(  5-C , 12-C ) :   1.4306 B(  6-C , 13-C ) :   1.1907 B(  6-C , 14-C ) :   1.4261
B(  7-C ,  9-C ) :   1.4411 B(  7-C , 15-C ) :   1.1809 B(  8-C , 16-C ) :   1.4352
B(  8-C , 17-C ) :   1.1872 B(  9-C , 18-C ) :   1.1852 B( 10-C , 16-C ) :   1.1881
B( 10-C , 19-C ) :   1.1898 B( 11-C , 20-C ) :   1.4368 B( 12-C , 14-C ) :   1.1747
B( 12-C , 21-C ) :   1.1884 B( 13-C , 15-C ) :   1.1746 B( 13-C , 22-C ) :   1.4199
B( 14-C , 23-C ) :   1.1855 B( 15-C , 24-C ) :   1.4298 B( 16-C , 25-C ) :   1.1881
B( 17-C , 18-C ) :   1.1921 B( 17-C , 26-C ) :   1.4314 B( 18-C , 27-C ) :   1.4384
B( 19-C , 28-C ) :   1.1883 B( 19-C , 29-C ) :   1.4338 B( 20-C , 29-C ) :   1.1885
B( 20-C , 30-C ) :   1.1889 B( 21-C , 30-C ) :   1.4255 B( 21-C , 31-C ) :   1.1927
B( 22-C , 32-C ) :   1.1419 B( 22-C , 33-C ) :   1.1865 B( 23-C , 31-C ) :   1.1637
B( 23-C , 32-C ) :   1.4739 B( 24-C , 27-C ) :   1.1847 B( 24-C , 34-C ) :   1.1873
B( 25-C , 28-C ) :   1.1888 B( 25-C , 35-C ) :   1.4347 B( 26-C , 35-C ) :   1.1874
B( 26-C , 36-C ) :   1.1918 B( 27-C , 37-C ) :   1.1882 B( 28-C , 38-C ) :   1.4354
B( 29-C , 39-C ) :   1.1889 B( 30-C , 40-C ) :   1.1824 B( 31-C , 41-C ) :   1.4154
B( 32-C , 42-C ) :   0.2124 B( 32-C , 68-C ) :   0.9338 B( 33-C , 34-C ) :   1.4130
B( 33-C , 43-C ) :   1.1791 B( 34-C , 44-C ) :   1.1827 B( 35-C , 45-C ) :   1.1883
B( 36-C , 37-C ) :   1.4373 B( 36-C , 46-C ) :   1.1861 B( 37-C , 44-C ) :   1.1874
B( 38-C , 47-C ) :   1.1888 B( 38-C , 48-C ) :   1.1886 B( 39-C , 40-C ) :   1.1904
B( 39-C , 48-C ) :   1.4354 B( 40-C , 49-C ) :   1.4273 B( 41-C , 49-C ) :   1.1853
B( 41-C , 50-C ) :   1.1689 B( 42-C , 43-C ) :   1.1569 B( 42-C , 50-C ) :   1.4543
B( 42-C , 68-C ) :   0.9303 B( 43-C , 51-C ) :   1.4271 B( 44-C , 52-C ) :   1.4336
B( 45-C , 46-C ) :   1.1894 B( 45-C , 47-C ) :   1.4328 B( 46-C , 53-C ) :   1.4409
B( 47-C , 54-C ) :   1.1901 B( 48-C , 55-C ) :   1.1916 B( 49-C , 56-C ) :   1.1920
B( 50-C , 57-C ) :   1.1800 B( 51-C , 52-C ) :   1.1712 B( 51-C , 58-C ) :   1.1899
B( 52-C , 53-C ) :   1.1815 B( 53-C , 59-C ) :   1.1902 B( 54-C , 55-C ) :   1.1945
B( 54-C , 59-C ) :   1.4327 B( 55-C , 56-C ) :   1.4270 B( 56-C , 57-C ) :   1.1770
B( 57-C , 58-C ) :   1.4270 B( 58-C , 59-C ) :   1.1990 B( 60-H , 61-C ) :   0.9654
B( 61-C , 62-H ) :   0.9600 B( 61-C , 64-C ) :   1.1299 B( 61-C , 66-H ) :   0.9655
B( 63-H , 64-C ) :   0.9566 B( 64-C , 65-O ) :   0.8843 B( 64-C , 70-H ) :   0.9426
B( 65-O , 67-C ) :   1.2371 B( 67-C , 68-C ) :   0.8508 B( 67-C , 69-O ) :   2.1257
B( 68-C , 71-C ) :   0.8636 B( 71-C , 73-O ) :   1.2326 B( 71-C , 75-O ) :   2.1266
B( 72-H , 77-C ) :   0.9669 B( 73-O , 76-C ) :   0.8793 B( 74-H , 76-C ) :   0.9548
B( 76-C , 77-C ) :   1.1084 B( 76-C , 80-H ) :   0.9549 B( 77-C , 78-H ) :   0.9575
B( 77-C , 79-H ) :   0.9667

FINAL SINGLE POINT ENERGY     -2856.123191324682

DIPOLE MOMENT
-------------

Method             : SCF
Type of density    : Electron Density
Multiplicity       :   1
Irrep              :   0
Energy             : -2856.1231913246824661 Eh
Relativity type    :
Basis              : AO
                                X                 Y                 Z
Electronic contribution:     11.155825502     -57.692123621      -6.952887690
Nuclear contribution   :    -11.394971416      59.199487493       7.125078701
                        -----------------------------------------
Total Dipole Moment    :     -0.239145913       1.507363872       0.172191011
                        -----------------------------------------
Magnitude (a.u.)       :      1.535899201
Magnitude (Debye)      :      3.903945517

Rotational constants in cm-1:             0.002415             0.001417             0.001351
Rotational constants in MHz :            72.393265            42.480838            40.503316

                             ****ORCA TERMINATED NORMALLY****
TOTAL RUN TIME: 0 days 0 hours 2 minutes 47 seconds 935 msec
