                         Program Version 6.0.1  -  RELEASE   -
|  1> ! B3LYP def2-SVP SP TightSCF ALLPOP KEEPDENS ChelpG
|  2>
|  3> %maxcore 5000
|  4>
|  5> %pal
|  6> nprocs 20
|  7> end
|  8>
|  9> * xyz 0 1
| 10>   O           0.17169005367134      2.05724612387371     -1.80272527920544
| 11>   O          -4.09357143427485     -1.39902893887975      1.23266058015122
| 12>   C           1.05034649043488      0.44450562229581     -0.27469730060831
| 13>   C          -0.30539481024337     -0.00896312773591      0.12353715919606
| 14>   C          -2.60470534848542     -0.65600699045134     -0.45341954578049
| 15>   C          -1.33946229005832     -0.19220128845098     -0.81293498002468
| 16>   C           3.49411766110025      0.26823422346540      0.00591608428806
| 17>   C           2.18700281966474     -0.13206198305611      0.31125887048925
| 18>   C           1.25772413322483      1.47237912907602     -1.22471240108735
| 19>   C          -0.58630874587366     -0.30619004984334      1.46633179825901
| 20>   C          -2.85416268570880     -0.94574109420497      0.90238295195514
| 21>   C          -3.71693358376137     -0.80048500958411     -1.46975495045698
| 22>   C           4.67964151768321     -0.39294882094789      0.68603795634372
| 23>   C           3.66368999081706      1.28446518388362     -0.93887748229613
| 24>   C          -1.84297193931370     -0.77088253092925      1.85232186528392
| 25>   C           2.55644309234062      1.87871551038059     -1.54618643016976
| 26>   C          -4.63815038837240      0.39472056623772     -1.45694943104881
| 27>   C           4.66670413468810     -1.89287610407017      0.56578871660467
| 28>   C          -5.92080584866854      0.37205515766397     -1.08833196709159
| 29>   C           4.62410016505659     -2.74581181047350      1.59289728574823
| 30>   H          -1.14860673081049      0.03013611079502     -1.86321987695191
| 31>   H           2.04280969539514     -0.94945174581845      1.02154736502464
| 32>   H           0.18295210315379     -0.15600028156821      2.22668918981267
| 33>   H          -3.26638292970895     -0.90390479244041     -2.47150459199438
| 34>   H          -4.29679347879271     -1.71395164496702     -1.26746639631059
| 35>   H           5.60740543100551      0.00324446564591      0.23732148008905
| 36>   H           4.70508784243980     -0.11530825932632      1.75487280238940
| 37>   H           4.66929170741963      1.61903770344057     -1.20833097602566
| 38>   H          -2.04661294251941     -0.99200637547329      2.90519083047547
| 39>   H           2.69826912560533      2.67734666739523     -2.28197107570408
| 40>   H          -4.17592781129544      1.34600708621396     -1.75067631056833
| 41>   H           4.67320792579854     -2.28492208073978     -0.45929588086071
| 42>   H           0.47060816172618      2.76320084595654     -2.39044731130797
| 43>   H          -4.13363424384033     -1.55431085199013      2.18514516563864
| 44>   H          -6.53208093268517      1.27926069388236     -1.08624015093232
| 45>   H          -6.40213479876427     -0.55662559941090     -0.76511741460405
| 46>   H           4.60896923677931     -3.82860031284011      1.43967785447291
| 47>   H           4.60537965517236     -2.38987539700450      2.62898179680751
| 48> *
| 49>
| 50>
| 51>                          ****END OF INPUT****

CARTESIAN COORDINATES (ANGSTROEM)
---------------------------------
  O      0.171690    2.057246   -1.802725
  O     -4.093571   -1.399029    1.232661
  C      1.050346    0.444506   -0.274697
  C     -0.305395   -0.008963    0.123537
  C     -2.604705   -0.656007   -0.453420
  C     -1.339462   -0.192201   -0.812935
  C      3.494118    0.268234    0.005916
  C      2.187003   -0.132062    0.311259
  C      1.257724    1.472379   -1.224712
  C     -0.586309   -0.306190    1.466332
  C     -2.854163   -0.945741    0.902383
  C     -3.716934   -0.800485   -1.469755
  C      4.679642   -0.392949    0.686038
  C      3.663690    1.284465   -0.938877
  C     -1.842972   -0.770883    1.852322
  C      2.556443    1.878716   -1.546186
  C     -4.638150    0.394721   -1.456949
  C      4.666704   -1.892876    0.565789
  C     -5.920806    0.372055   -1.088332
  C      4.624100   -2.745812    1.592897
  H     -1.148607    0.030136   -1.863220
  H      2.042810   -0.949452    1.021547
  H      0.182952   -0.156000    2.226689
  H     -3.266383   -0.903905   -2.471505
  H     -4.296793   -1.713952   -1.267466
  H      5.607405    0.003244    0.237321
  H      4.705088   -0.115308    1.754873
  H      4.669292    1.619038   -1.208331
  H     -2.046613   -0.992006    2.905191
  H      2.698269    2.677347   -2.281971
  H     -4.175928    1.346007   -1.750676
  H      4.673208   -2.284922   -0.459296
  H      0.470608    2.763201   -2.390447
  H     -4.133634   -1.554311    2.185145
  H     -6.532081    1.279261   -1.086240
  H     -6.402135   -0.556626   -0.765117
  H      4.608969   -3.828600    1.439678
  H      4.605380   -2.389875    2.628982

 Total Charge           Charge          ....    0
 Multiplicity           Mult            ....    1
 Number of Electrons    NEL             ....  142
 Basis Dimension        Dim             ....  370

ORBITAL ENERGIES
----------------

  NO   OCC          E(Eh)            E(eV)
   0   2.0000     -19.162144      -521.4285
   1   2.0000     -19.160305      -521.3784
   2   2.0000     -10.244323      -278.7622
   3   2.0000     -10.239451      -278.6296
   4   2.0000     -10.189222      -277.2628
   5   2.0000     -10.188617      -277.2464
   6   2.0000     -10.187420      -277.2138
   7   2.0000     -10.186017      -277.1756
   8   2.0000     -10.185593      -277.1641
   9   2.0000     -10.184148      -277.1247
  10   2.0000     -10.182927      -277.0915
  11   2.0000     -10.182546      -277.0812
  12   2.0000     -10.181938      -277.0646
  13   2.0000     -10.181869      -277.0627
  14   2.0000     -10.181039      -277.0402
  15   2.0000     -10.180130      -277.0154
  16   2.0000     -10.178405      -276.9685
  17   2.0000     -10.178094      -276.9600
  18   2.0000     -10.177124      -276.9336
  19   2.0000     -10.168238      -276.6918
  20   2.0000      -1.049089       -28.5472
  21   2.0000      -1.046578       -28.4788
  22   2.0000      -0.852803       -23.2059
  23   2.0000      -0.836508       -22.7625
  24   2.0000      -0.790672       -21.5153
  25   2.0000      -0.782149       -21.2833
  26   2.0000      -0.757284       -20.6067
  27   2.0000      -0.732764       -19.9395
  28   2.0000      -0.729643       -19.8546
  29   2.0000      -0.706207       -19.2169
  30   2.0000      -0.668539       -18.1919
  31   2.0000      -0.661093       -17.9893
  32   2.0000      -0.623919       -16.9777
  33   2.0000      -0.618943       -16.8423
  34   2.0000      -0.589491       -16.0409
  35   2.0000      -0.563402       -15.3310
  36   2.0000      -0.546928       -14.8827
  37   2.0000      -0.541020       -14.7219
  38   2.0000      -0.538305       -14.6480
  39   2.0000      -0.530419       -14.4334
  40   2.0000      -0.495895       -13.4940
  41   2.0000      -0.478233       -13.0134
  42   2.0000      -0.471606       -12.8331
  43   2.0000      -0.454987       -12.3808
  44   2.0000      -0.446127       -12.1397
  45   2.0000      -0.440621       -11.9899
  46   2.0000      -0.430295       -11.7089
  47   2.0000      -0.428849       -11.6696
  48   2.0000      -0.427158       -11.6236
  49   2.0000      -0.422437       -11.4951
  50   2.0000      -0.406661       -11.0658
  51   2.0000      -0.402433       -10.9507
  52   2.0000      -0.401104       -10.9146
  53   2.0000      -0.393446       -10.7062
  54   2.0000      -0.388731       -10.5779
  55   2.0000      -0.376793       -10.2531
  56   2.0000      -0.374475       -10.1900
  57   2.0000      -0.357166        -9.7190
  58   2.0000      -0.353990        -9.6326
  59   2.0000      -0.344346        -9.3701
  60   2.0000      -0.339325        -9.2335
  61   2.0000      -0.335230        -9.1221
  62   2.0000      -0.328802        -8.9472
  63   2.0000      -0.327374        -8.9083
  64   2.0000      -0.320373        -8.7178
  65   2.0000      -0.260922        -7.1001
  66   2.0000      -0.258227        -7.0267
  67   2.0000      -0.250517        -6.8169
  68   2.0000      -0.240282        -6.5384
  69   2.0000      -0.223584        -6.0840
  70   2.0000      -0.200598        -5.4586
  71   0.0000      -0.021690        -0.5902
  72   0.0000      -0.004875        -0.1327
  73   0.0000       0.003213         0.0874
  74   0.0000       0.016099         0.4381
  75   0.0000       0.030201         0.8218

MULLIKEN ATOMIC CHARGES
-----------------------
   0 O :   -0.183592
   1 O :   -0.185983
   2 C :    0.053975
   3 C :    0.080629
   4 C :   -0.088291
   5 C :   -0.044282
   6 C :   -0.025633
   7 C :   -0.064717
   8 C :    0.116200
   9 C :   -0.023408
  10 C :    0.140639
  11 C :    0.198626
  12 C :    0.189675
  13 C :   -0.021541
  14 C :   -0.048858
  15 C :   -0.047642
  16 C :   -0.067258
  17 C :   -0.079931
  18 C :   -0.018705
  19 C :   -0.030375
  20 H :   -0.037307
  21 H :   -0.034783
  22 H :   -0.028926
  23 H :   -0.007709
  24 H :   -0.001344
  25 H :   -0.005846
  26 H :    0.004027
  27 H :   -0.034250
  28 H :   -0.050631
  29 H :   -0.048790
  30 H :   -0.004881
  31 H :   -0.000056
  32 H :    0.172873
  33 H :    0.173587
  34 H :    0.012637
  35 H :    0.011217
  36 H :    0.019845
  37 H :    0.010809
Sum of atomic charges:    0.0000000

LOEWDIN ATOMIC CHARGES
----------------------
   0 O :   -0.048156
   1 O :   -0.048938
   2 C :   -0.039562
   3 C :   -0.035366
   4 C :   -0.047397
   5 C :   -0.003271
   6 C :   -0.043047
   7 C :   -0.009081
   8 C :    0.051164
   9 C :   -0.013562
  10 C :    0.051622
  11 C :   -0.018399
  12 C :   -0.020461
  13 C :   -0.025437
  14 C :   -0.080918
  15 C :   -0.079192
  16 C :   -0.018991
  17 C :   -0.018532
  18 C :   -0.063431
  19 C :   -0.067811
  20 H :    0.023269
  21 H :    0.025985
  22 H :    0.025349
  23 H :    0.031042
  24 H :    0.031101
  25 H :    0.031745
  26 H :    0.032189
  27 H :    0.023290
  28 H :    0.020881
  29 H :    0.021072
  30 H :    0.022263
  31 H :    0.025097
  32 H :    0.090539
  33 H :    0.091301
  34 H :    0.020779
  35 H :    0.020202
  36 H :    0.023628
  37 H :    0.019035

  Mayer bond orders larger than 0.100000
B(  0-O ,  8-C ) :   1.2012 B(  0-O , 32-H ) :   0.9599 B(  1-O , 10-C ) :   1.2109
B(  1-O , 33-H ) :   0.9608 B(  2-C ,  3-C ) :   0.9588 B(  2-C ,  7-C ) :   1.3871
B(  2-C ,  8-C ) :   1.3463 B(  3-C ,  5-C ) :   1.3311 B(  3-C ,  9-C ) :   1.3853
B(  4-C ,  5-C ) :   1.4081 B(  4-C , 10-C ) :   1.3494 B(  4-C , 11-C ) :   1.0451
B(  5-C , 20-H ) :   0.9844 B(  6-C ,  7-C ) :   1.3384 B(  6-C , 12-C ) :   1.0271
B(  6-C , 13-C ) :   1.3924 B(  7-C , 21-H ) :   0.9844 B(  8-C , 15-C ) :   1.3310
B(  9-C , 14-C ) :   1.3511 B(  9-C , 22-H ) :   0.9800 B( 10-C , 14-C ) :   1.3284
B( 11-C , 16-C ) :   1.0538 B( 11-C , 23-H ) :   0.9008 B( 11-C , 24-H ) :   0.9124
B( 12-C , 17-C ) :   1.0516 B( 12-C , 25-H ) :   0.9067 B( 12-C , 26-H ) :   0.9166
B( 13-C , 15-C ) :   1.3468 B( 13-C , 27-H ) :   0.9817 B( 14-C , 28-H ) :   0.9784
B( 15-C , 29-H ) :   0.9752 B( 16-C , 18-C ) :   2.0193 B( 16-C , 30-H ) :   0.9561
B( 17-C , 19-C ) :   1.9950 B( 17-C , 31-H ) :   0.9634 B( 18-C , 34-H ) :   0.9477
B( 18-C , 35-H ) :   0.9503 B( 19-C , 36-H ) :   0.9485 B( 19-C , 37-H ) :   0.9522

FINAL SINGLE POINT ENERGY      -846.030521164457

DIPOLE MOMENT
-------------

Method             : SCF
Type of density    : Electron Density
Multiplicity       :   1
Irrep              :   0
Energy             :  -846.0305211644568999 Eh
Relativity type    :
Basis              : AO
                                X                 Y                 Z
Electronic contribution:     -2.210440712       3.908061848      -0.741125152
Nuclear contribution   :      2.570046078      -3.583179793       0.912309161
                        -----------------------------------------
Total Dipole Moment    :      0.359605367       0.324882055       0.171184009
                        -----------------------------------------
Magnitude (a.u.)       :      0.513973087
Magnitude (Debye)      :      1.306415765

Rotational constants in cm-1:             0.021397             0.005544             0.004656
Rotational constants in MHz :           641.453025           166.208995           139.579891

                             ****ORCA TERMINATED NORMALLY****
TOTAL RUN TIME: 0 days 0 hours 1 minutes 27 seconds 274 msec
