                         Program Version 6.0.1  -  RELEASE   -
|  1> ! wB97X-D3 def2-TZVPP TightSCF RIJCOSX SP
|  2>
|  3> %pal
|  4> nprocs 28
|  5> end
|  6>
|  7> %maxcore 3500
|  8>
|  9>
| 10> * xyz -1 2
| 11>   O           0.26478878684805      1.80678309074617     -2.06162136276599
| 12>   O          -4.08097294748948     -1.38728777806049      1.32936595804743
| 13>   C           1.05320748290041      0.33218967545511     -0.34059402851511
| 14>   C          -0.31319170623515     -0.09288902835303      0.07700812082236
| 15>   C          -2.64991261401223     -0.65067266496506     -0.41139657442445
| 16>   C          -1.38488195647968     -0.22018821417370     -0.81667596758308
| 17>   C           3.45841230132820      0.25283804041327      0.13748622096901
| 18>   C           2.14636994000656     -0.17762528060423      0.36586086882033
| 19>   C           1.30898383622235      1.27890052409909     -1.35297358035576
| 20>   C          -0.53081731826083     -0.41600023236575      1.42761141318639
| 21>   C          -2.84348107469314     -0.96144836907597      0.94062352840164
| 22>   C          -3.80614405567030     -0.75092752752891     -1.38247230126788
| 23>   C           4.55583393609718     -0.29563405747252      1.02860029996600
| 24>   C           3.68469356812675      1.18979773726450     -0.86731213644940
| 25>   C          -1.78702696449216     -0.84412551440348      1.84361663904927
| 26>   C           2.61612895882211      1.68871218883768     -1.61607908149051
| 27>   C          -4.68649369240998      0.47051938312701     -1.34439642782695
| 28>   C           4.97694614157878     -1.69750167642403      0.66268272524845
| 29>   C          -5.97007221441670      0.48659287952313     -0.98692108192403
| 30>   C           4.60917337102637     -2.78102881849191      1.34801516353830
| 31>   H          -1.22995599878761      0.01881610934269     -1.87109165227441
| 32>   H           1.97881741753660     -0.94173373856986      1.14643893264137
| 33>   H           0.28540071996466     -0.32460480427760      2.16862455435824
| 34>   H          -3.40006878501846     -0.86711992448465     -2.40147206919258
| 35>   H          -4.41003946405540     -1.64496840243686     -1.16247733204104
| 36>   H           5.43073332085342      0.37708078058734      0.98856465619266
| 37>   H           4.17083861111945     -0.29835313155648      2.06051088278738
| 38>   H           4.69908974283022      1.55080329477486     -1.06891494091026
| 39>   H          -1.94313003399142     -1.09844947616494      2.89850143616932
| 40>   H           2.79421754201581      2.43049067011609     -2.40434932050825
| 41>   H          -4.19147149629927      1.41327299784300     -1.61255671586403
| 42>   H           5.58942592150791     -1.80070221949072     -0.24513625451492
| 43>   H           0.61807047414784      2.47998931658340     -2.64918439578981
| 44>   H          -4.04556612004175     -1.57632372789989      2.27137550081998
| 45>   H          -6.54673525956670      1.41594597828893     -0.96412679469045
| 46>   H          -6.48432301481845     -0.43078874937402     -0.68201649834658
| 47>   H           4.92027059577757     -3.78016940501845      1.02329937546944
| 48>   H           3.94042743175323     -2.68673227743038      2.21693441754347
| 49>   O           2.08034629492380     -1.80638353632916      2.87762550072804
| 50>   O           1.85635432135147     -0.64954611205016      3.44748332197639
| 51> *
| 52>
| 53>                          ****END OF INPUT****

CARTESIAN COORDINATES (ANGSTROEM)
---------------------------------
  O      0.264789    1.806783   -2.061621
  O     -4.080973   -1.387288    1.329366
  C      1.053207    0.332190   -0.340594
  C     -0.313192   -0.092889    0.077008
  C     -2.649913   -0.650673   -0.411397
  C     -1.384882   -0.220188   -0.816676
  C      3.458412    0.252838    0.137486
  C      2.146370   -0.177625    0.365861
  C      1.308984    1.278901   -1.352974
  C     -0.530817   -0.416000    1.427611
  C     -2.843481   -0.961448    0.940624
  C     -3.806144   -0.750928   -1.382472
  C      4.555834   -0.295634    1.028600
  C      3.684694    1.189798   -0.867312
  C     -1.787027   -0.844126    1.843617
  C      2.616129    1.688712   -1.616079
  C     -4.686494    0.470519   -1.344396
  C      4.976946   -1.697502    0.662683
  C     -5.970072    0.486593   -0.986921
  C      4.609173   -2.781029    1.348015
  H     -1.229956    0.018816   -1.871092
  H      1.978817   -0.941734    1.146439
  H      0.285401   -0.324605    2.168625
  H     -3.400069   -0.867120   -2.401472
  H     -4.410039   -1.644968   -1.162477
  H      5.430733    0.377081    0.988565
  H      4.170839   -0.298353    2.060511
  H      4.699090    1.550803   -1.068915
  H     -1.943130   -1.098449    2.898501
  H      2.794218    2.430491   -2.404349
  H     -4.191471    1.413273   -1.612557
  H      5.589426   -1.800702   -0.245136
  H      0.618070    2.479989   -2.649184
  H     -4.045566   -1.576324    2.271376
  H     -6.546735    1.415946   -0.964127
  H     -6.484323   -0.430789   -0.682016
  H      4.920271   -3.780169    1.023299
  H      3.940427   -2.686732    2.216934
  O      2.080346   -1.806384    2.877626
  O      1.856354   -0.649546    3.447483

 Total Charge           Charge          ....   -1
 Multiplicity           Mult            ....    2
 Number of Electrons    NEL             ....  159
 Basis Dimension        Dim             ....  934

ORBITAL ENERGIES
----------------
                 SPIN UP ORBITALS
  NO   OCC          E(Eh)            E(eV)
   0   1.0000     -19.165537      -521.5208
   1   1.0000     -19.162198      -521.4299
   2   1.0000     -19.044627      -518.2306
   3   1.0000     -19.043906      -518.2110
   4   1.0000     -10.231815      -278.4218
   5   1.0000     -10.231373      -278.4098
   6   1.0000     -10.199902      -277.5534
   7   1.0000     -10.192795      -277.3600
   8   1.0000     -10.187192      -277.2076
   9   1.0000     -10.177888      -276.9544
  10   1.0000     -10.171992      -276.7940
  11   1.0000     -10.170749      -276.7601
  12   1.0000     -10.169204      -276.7181
  13   1.0000     -10.168947      -276.7111
  14   1.0000     -10.168192      -276.6906
  15   1.0000     -10.164490      -276.5898
  16   1.0000     -10.161924      -276.5200
  17   1.0000     -10.160354      -276.4773
  18   1.0000     -10.156661      -276.3768
  19   1.0000     -10.152810      -276.2720
  20   1.0000     -10.142490      -275.9912
  21   1.0000     -10.141639      -275.9680
  22   1.0000      -1.083291       -29.4778
  23   1.0000      -1.080259       -29.3953
  24   1.0000      -1.023452       -27.8495
  25   1.0000      -0.870996       -23.7010
  26   1.0000      -0.855999       -23.2929
  27   1.0000      -0.824685       -22.4408
  28   1.0000      -0.794612       -21.6225
  29   1.0000      -0.775742       -21.1090
  30   1.0000      -0.759948       -20.6792
  31   1.0000      -0.737496       -20.0683
  32   1.0000      -0.721052       -19.6208
  33   1.0000      -0.692691       -18.8491
  34   1.0000      -0.668147       -18.1812
  35   1.0000      -0.655759       -17.8441
  36   1.0000      -0.632364       -17.2075
  37   1.0000      -0.623297       -16.9608
  38   1.0000      -0.593754       -16.1569
  39   1.0000      -0.578675       -15.7466
  40   1.0000      -0.562461       -15.3054
  41   1.0000      -0.537547       -14.6274
  42   1.0000      -0.535644       -14.5756
  43   1.0000      -0.530719       -14.4416
  44   1.0000      -0.498017       -13.5517
  45   1.0000      -0.479842       -13.0572
  46   1.0000      -0.470425       -12.8009
  47   1.0000      -0.456525       -12.4227
  48   1.0000      -0.446019       -12.1368
  49   1.0000      -0.442583       -12.0433
  50   1.0000      -0.433963       -11.8087
  51   1.0000      -0.423140       -11.5142
  52   1.0000      -0.416281       -11.3276
  53   1.0000      -0.410862       -11.1801
  54   1.0000      -0.409884       -11.1535
  55   1.0000      -0.399471       -10.8702
  56   1.0000      -0.396445       -10.7878
  57   1.0000      -0.393336       -10.7032
  58   1.0000      -0.382005       -10.3949
  59   1.0000      -0.370286       -10.0760
  60   1.0000      -0.358662        -9.7597
  61   1.0000      -0.355842        -9.6830
  62   1.0000      -0.350688        -9.5427
  63   1.0000      -0.344723        -9.3804
  64   1.0000      -0.330993        -9.0068
  65   1.0000      -0.329633        -8.9698
  66   1.0000      -0.324659        -8.8344
  67   1.0000      -0.317442        -8.6380
  68   1.0000      -0.315330        -8.5806
  69   1.0000      -0.303990        -8.2720
  70   1.0000      -0.294964        -8.0264
  71   1.0000      -0.275276        -7.4906
  72   1.0000      -0.266599        -7.2545
  73   1.0000      -0.239424        -6.5151
  74   1.0000      -0.230146        -6.2626
  75   1.0000      -0.221093        -6.0163
  76   1.0000      -0.193632        -5.2690
  77   1.0000      -0.172605        -4.6968
  78   1.0000      -0.124587        -3.3902
  79   1.0000      -0.087270        -2.3747
  80   0.0000       0.156633         4.2622
  81   0.0000       0.161010         4.3813
  82   0.0000       0.185710         5.0534
  83   0.0000       0.189143         5.1469
  84   0.0000       0.198558         5.4030

                 SPIN DOWN ORBITALS
  NO   OCC          E(Eh)            E(eV)
   0   1.0000     -19.165538      -521.5208
   1   1.0000     -19.162198      -521.4299
   2   1.0000     -19.032983      -517.9138
   3   1.0000     -19.031948      -517.8856
   4   1.0000     -10.231816      -278.4219
   5   1.0000     -10.231372      -278.4098
   6   1.0000     -10.199902      -277.5534
   7   1.0000     -10.192795      -277.3600
   8   1.0000     -10.187192      -277.2076
   9   1.0000     -10.177890      -276.9545
  10   1.0000     -10.171995      -276.7940
  11   1.0000     -10.170749      -276.7602
  12   1.0000     -10.169205      -276.7181
  13   1.0000     -10.168947      -276.7111
  14   1.0000     -10.168192      -276.6906
  15   1.0000     -10.164491      -276.5899
  16   1.0000     -10.161924      -276.5200
  17   1.0000     -10.160354      -276.4773
  18   1.0000     -10.156683      -276.3774
  19   1.0000     -10.152844      -276.2729
  20   1.0000     -10.142524      -275.9921
  21   1.0000     -10.141555      -275.9657
  22   1.0000      -1.083293       -29.4779
  23   1.0000      -1.080259       -29.3953
  24   1.0000      -0.992270       -27.0010
  25   1.0000      -0.871006       -23.7013
  26   1.0000      -0.856010       -23.2932
  27   1.0000      -0.824693       -22.4410
  28   1.0000      -0.794602       -21.6222
  29   1.0000      -0.775740       -21.1090
  30   1.0000      -0.759960       -20.6796
  31   1.0000      -0.737456       -20.0672
  32   1.0000      -0.721056       -19.6209
  33   1.0000      -0.692691       -18.8491
  34   1.0000      -0.667645       -18.1676
  35   1.0000      -0.632498       -17.2111
  36   1.0000      -0.623348       -16.9622
  37   1.0000      -0.610239       -16.6054
  38   1.0000      -0.593728       -16.1562
  39   1.0000      -0.578631       -15.7454
  40   1.0000      -0.562352       -15.3024
  41   1.0000      -0.537421       -14.6240
  42   1.0000      -0.535449       -14.5703
  43   1.0000      -0.530630       -14.4392
  44   1.0000      -0.497982       -13.5508
  45   1.0000      -0.479812       -13.0563
  46   1.0000      -0.470423       -12.8009
  47   1.0000      -0.456524       -12.4226
  48   1.0000      -0.445959       -12.1351
  49   1.0000      -0.442372       -12.0375
  50   1.0000      -0.433952       -11.8084
  51   1.0000      -0.423094       -11.5130
  52   1.0000      -0.415852       -11.3159
  53   1.0000      -0.410832       -11.1793
  54   1.0000      -0.409794       -11.1511
  55   1.0000      -0.399363       -10.8672
  56   1.0000      -0.395999       -10.7757
  57   1.0000      -0.392712       -10.6862
  58   1.0000      -0.381974       -10.3940
  59   1.0000      -0.369999       -10.0682
  60   1.0000      -0.358634        -9.7589
  61   1.0000      -0.354835        -9.6556
  62   1.0000      -0.347724        -9.4621
  63   1.0000      -0.336041        -9.1441
  64   1.0000      -0.329296        -8.9606
  65   1.0000      -0.325310        -8.8521
  66   1.0000      -0.317102        -8.6288
  67   1.0000      -0.309824        -8.4307
  68   1.0000      -0.305567        -8.3149
  69   1.0000      -0.295540        -8.0420
  70   1.0000      -0.268110        -7.2956
  71   1.0000      -0.263173        -7.1613
  72   1.0000      -0.240512        -6.5447
  73   1.0000      -0.235341        -6.4040
  74   1.0000      -0.228446        -6.2163
  75   1.0000      -0.220149        -5.9905
  76   1.0000      -0.193516        -5.2658
  77   1.0000      -0.172579        -4.6961
  78   1.0000      -0.069010        -1.8779
  79   0.0000       0.156590         4.2610
  80   0.0000       0.161046         4.3823
  81   0.0000       0.185631         5.0513
  82   0.0000       0.188866         5.1393
  83   0.0000       0.198535         5.4024

MULLIKEN ATOMIC CHARGES AND SPIN POPULATIONS
--------------------------------------------
   0 O :   -0.319296   -0.000002
   1 O :   -0.325768   -0.000025
   2 C :    0.010548   -0.001501
   3 C :    0.048245   -0.003323
   4 C :   -0.057136   -0.000055
   5 C :   -0.095640   -0.000331
   6 C :   -0.011425   -0.001452
   7 C :   -0.112088    0.004426
   8 C :    0.191606    0.000625
   9 C :   -0.161706    0.005780
  10 C :    0.259646   -0.000316
  11 C :   -0.091926    0.000045
  12 C :   -0.092606    0.003372
  13 C :   -0.145331    0.000979
  14 C :   -0.200289   -0.000350
  15 C :   -0.180641   -0.000571
  16 C :   -0.129730   -0.000037
  17 C :   -0.164189   -0.002902
  18 C :   -0.221248   -0.000009
  19 C :   -0.224558    0.008193
  20 H :    0.073905   -0.000062
  21 H :    0.152750   -0.005463
  22 H :    0.156985   -0.007375
  23 H :    0.076945    0.000002
  24 H :    0.076509    0.000004
  25 H :    0.053571   -0.000223
  26 H :    0.114530   -0.003206
  27 H :    0.080875   -0.000048
  28 H :    0.077950   -0.000186
  29 H :    0.050954    0.000008
  30 H :    0.102434    0.000003
  31 H :    0.072362   -0.000010
  32 H :    0.164029   -0.000016
  33 H :    0.176113   -0.000000
  34 H :    0.084617   -0.000000
  35 H :    0.071891   -0.000000
  36 H :    0.066136    0.000950
  37 H :    0.130636   -0.004707
  38 O :   -0.378764    0.491910
  39 O :   -0.380899    0.515873
Sum of atomic charges         :   -1.0000000

LOEWDIN ATOMIC CHARGES AND SPIN POPULATIONS
-------------------------------------------
   0 O :    0.331807    0.000005
   1 O :    0.329774   -0.000021
   2 C :   -0.063457   -0.000285
   3 C :   -0.070464   -0.000268
   4 C :   -0.091056   -0.000119
   5 C :    0.007327    0.000001
   6 C :   -0.082968   -0.000204
   7 C :    0.054468   -0.001556
   8 C :   -0.188472   -0.000019
   9 C :    0.034570   -0.001686
  10 C :   -0.195847   -0.000086
  11 C :   -0.031674   -0.000017
  12 C :   -0.029831   -0.000624
  13 C :   -0.034003   -0.000014
  14 C :   -0.043687   -0.000333
  15 C :   -0.069632   -0.000156
  16 C :   -0.029785   -0.000009
  17 C :   -0.056488    0.000470
  18 C :   -0.020563   -0.000002
  19 C :    0.001828    0.002786
  20 H :    0.019816   -0.000013
  21 H :    0.005289   -0.001057
  22 H :    0.014736   -0.002058
  23 H :    0.030470   -0.000002
  24 H :    0.031183   -0.000002
  25 H :    0.018383   -0.000141
  26 H :    0.047351   -0.000445
  27 H :    0.013853   -0.000015
  28 H :    0.016796   -0.000070
  29 H :    0.003996   -0.000015
  30 H :    0.019884   -0.000001
  31 H :    0.003229   -0.000012
  32 H :   -0.125085   -0.000008
  33 H :   -0.117779    0.000000
  34 H :   -0.004835   -0.000000
  35 H :    0.000089   -0.000000
  36 H :   -0.011522    0.000591
  37 H :   -0.000946    0.003865
  38 O :   -0.349084    0.490962
  39 O :   -0.367668    0.510558

  Mayer bond orders larger than 0.100000
B(  0-O ,  8-C ) :   1.0608 B(  0-O , 32-H ) :   1.0189 B(  1-O , 10-C ) :   1.0772
B(  1-O , 33-H ) :   1.0158 B(  2-C ,  3-C ) :   0.8939 B(  2-C ,  7-C ) :   1.4435
B(  2-C ,  8-C ) :   1.3380 B(  3-C ,  5-C ) :   1.3805 B(  3-C ,  9-C ) :   1.4075
B(  4-C ,  5-C ) :   1.4427 B(  4-C , 10-C ) :   1.3717 B(  4-C , 11-C ) :   0.9223
B(  5-C , 20-H ) :   0.9586 B(  6-C ,  7-C ) :   1.4120 B(  6-C , 12-C ) :   0.9029
B(  6-C , 13-C ) :   1.4105 B(  7-C , 21-H ) :   0.8559 B(  8-C , 15-C ) :   1.4166
B(  9-C , 14-C ) :   1.5193 B(  9-C , 22-H ) :   0.8598 B( 10-C , 14-C ) :   1.3464
B( 11-C , 16-C ) :   0.9413 B( 11-C , 23-H ) :   1.0112 B( 11-C , 24-H ) :   0.9990
B( 12-C , 17-C ) :   0.9190 B( 12-C , 25-H ) :   1.0058 B( 12-C , 26-H ) :   1.0018
B( 13-C , 15-C ) :   1.4423 B( 13-C , 27-H ) :   0.9718 B( 14-C , 28-H ) :   0.9799
B( 15-C , 29-H ) :   0.9774 B( 16-C , 18-C ) :   1.9184 B( 16-C , 30-H ) :   0.9769
B( 17-C , 19-C ) :   1.9242 B( 17-C , 31-H ) :   0.9843 B( 18-C , 34-H ) :   0.9951
B( 18-C , 35-H ) :   0.9939 B( 19-C , 36-H ) :   0.9990 B( 19-C , 37-H ) :   0.9533
B( 21-H , 38-O ) :   0.2410 B( 22-H , 39-O ) :   0.2259 B( 38-O , 39-O ) :   1.2798

Dispersion correction           -0.019210824
FINAL SINGLE POINT ENERGY      -997.629094419550

DIPOLE MOMENT
-------------

Method             : SCF
Type of density    : Electron Density
Multiplicity       :   2
Irrep              :   0
Energy             :  -997.6098835960244742 Eh
Relativity type    :
Basis              : AO
                                X                 Y                 Z
Electronic contribution:     -0.859606880       2.485416614       1.252435122
Nuclear contribution   :     -1.218517823      -1.081300416      -4.374587326
                        -----------------------------------------
Total Dipole Moment    :     -2.078124703       1.404116199      -3.122152205
                        -----------------------------------------
Magnitude (a.u.)       :      4.004744558
Magnitude (Debye)      :     10.179251707

Rotational constants in cm-1:             0.015775             0.005132             0.004149
Rotational constants in MHz :           472.922187           153.839810           124.370163

                             ****ORCA TERMINATED NORMALLY****
TOTAL RUN TIME: 0 days 0 hours 2 minutes 36 seconds 422 msec
