                         Program Version 6.0.1  -  RELEASE   -
|  1> ! B3LYP def2-SVP OPT TightSCF ALLPOP KEEPDENS D3BJ
|  2>
|  3> %pal
|  4> nprocs 4
|  5> end
|  6>
|  7> * xyz 0 1
|  8> N         -2.81540        0.00030       -0.00010
|  9> C          1.38480        0.00000       -0.00010
| 10> C         -1.40500       -0.00020        0.00000
| 11> C          0.68740       -1.20800        0.00000
| 12> C          0.68730        1.20790        0.00000
| 13> C         -0.70750       -1.20810        0.00010
| 14> C         -0.70760        1.20780        0.00010
| 15> C          2.87610        0.00020        0.00000
| 16> H          1.21950       -2.15560       -0.00180
| 17> H          1.21930        2.15560       -0.00180
| 18> H         -1.23950       -2.15600       -0.00030
| 19> H         -1.23970        2.15580       -0.00030
| 20> H          3.27100        0.87910        0.52090
| 21> H          3.27150       -0.88160        0.51550
| 22> H          3.25180        0.00330       -1.02790
| 23> H         -3.32130        0.87590       -0.00090
| 24> H         -3.32190       -0.87510       -0.00090
| 25> *
| 26>
| 27>                          ****END OF INPUT****
 Total Charge           Charge          ....    0
 Multiplicity           Mult            ....    1
 Number of Electrons    NEL             ....   58
Dispersion correction           -0.028166021
FINAL SINGLE POINT ENERGY      -326.500729125263
Dispersion correction             ... done (  0.0 sec)
Dispersion correction           -0.028034997
FINAL SINGLE POINT ENERGY      -326.503252015642
Dispersion correction             ... done (  0.0 sec)
Dispersion correction           -0.027988293
FINAL SINGLE POINT ENERGY      -326.503744077859
Dispersion correction             ... done (  0.0 sec)
Dispersion correction           -0.027986296
FINAL SINGLE POINT ENERGY      -326.503799156256
Dispersion correction             ... done (  0.1 sec)
Dispersion correction           -0.027989605
FINAL SINGLE POINT ENERGY      -326.503806893236
Dispersion correction             ... done (  0.0 sec)
                    ***********************HURRAY********************

CARTESIAN COORDINATES (ANGSTROEM)
---------------------------------
  N     -2.826765    0.000067   -0.012126
  C      1.405768   -0.000003    0.017509
  C     -1.450746    0.000016   -0.003366
  C      0.672399   -1.195614    0.015190
  C      0.672395    1.195667    0.014535
  C     -0.720948   -1.205740    0.004327
  C     -0.720903    1.205799    0.003670
  C      2.914123    0.000151   -0.007489
  H      1.205972   -2.151091    0.024032
  H      1.205971    2.151152    0.022858
  H     -1.257877   -2.158932    0.006319
  H     -1.257836    2.158992    0.005143
  H      3.326442    0.887631    0.498239
  H      3.326332   -0.892596    0.488897
  H      3.304386    0.005632   -1.041428
  H     -3.343923    0.865654   -0.017143
  H     -3.343990   -0.865483   -0.016667

 Multiplicity           Mult            ....    1
 Number of Electrons    NEL             ....   58
 Basis Dimension        Dim             ....  157

ORBITAL ENERGIES
----------------

  NO   OCC          E(Eh)            E(eV)
   0   2.0000     -14.327535      -389.8720
   1   2.0000     -10.217674      -278.0370
   2   2.0000     -10.172957      -276.8202
   3   2.0000     -10.172468      -276.8069
   4   2.0000     -10.172452      -276.8065
   5   2.0000     -10.169422      -276.7240
   6   2.0000     -10.169399      -276.7234
   7   2.0000     -10.169166      -276.7171
   8   2.0000      -0.901029       -24.5183
   9   2.0000      -0.819766       -22.3070
  10   2.0000      -0.735550       -20.0153
  11   2.0000      -0.721582       -19.6352
  12   2.0000      -0.656307       -17.8590
  13   2.0000      -0.597806       -16.2671
  14   2.0000      -0.569324       -15.4921
  15   2.0000      -0.513358       -13.9692
  16   2.0000      -0.511292       -13.9130
  17   2.0000      -0.448517       -12.2048
  18   2.0000      -0.432848       -11.7784
  19   2.0000      -0.414961       -11.2917
  20   2.0000      -0.404056       -10.9949
  21   2.0000      -0.403484       -10.9794
  22   2.0000      -0.368621       -10.0307
  23   2.0000      -0.368580       -10.0296
  24   2.0000      -0.343884        -9.3575
  25   2.0000      -0.324846        -8.8395
  26   2.0000      -0.292414        -7.9570
  27   2.0000      -0.239898        -6.5280
  28   2.0000      -0.185964        -5.0603
  29   0.0000       0.006435         0.1751
  30   0.0000       0.026896         0.7319
  31   0.0000       0.057379         1.5614
  32   0.0000       0.076808         2.0901
  33   0.0000       0.089423         2.4333

MULLIKEN ATOMIC CHARGES
-----------------------
   0 N :   -0.082576
   1 C :   -0.039603
   2 C :    0.092396
   3 C :   -0.017877
   4 C :   -0.017877
   5 C :   -0.033384
   6 C :   -0.033372
   7 C :    0.082052
   8 H :   -0.040871
   9 H :   -0.040880
  10 H :   -0.054445
  11 H :   -0.054421
  12 H :    0.005660
  13 H :    0.005420
  14 H :    0.021192
  15 H :    0.104292
  16 H :    0.104294
Sum of atomic charges:    0.0000000

LOEWDIN ATOMIC CHARGES
----------------------
   0 N :   -0.026546
   1 C :   -0.063532
   2 C :    0.025391
   3 C :   -0.020750
   4 C :   -0.020700
   5 C :   -0.072891
   6 C :   -0.072831
   7 C :   -0.046642
   8 H :    0.021322
   9 H :    0.021328
  10 H :    0.017293
  11 H :    0.017296
  12 H :    0.025789
  13 H :    0.025735
  14 H :    0.029782
  15 H :    0.069977
  16 H :    0.069979

  Mayer bond orders larger than 0.100000
B(  0-N ,  2-C ) :   1.2347 B(  0-N , 15-H ) :   0.9509 B(  0-N , 16-H ) :   0.9509
B(  1-C ,  3-C ) :   1.3784 B(  1-C ,  4-C ) :   1.3780 B(  1-C ,  7-C ) :   1.0652
B(  2-C ,  5-C ) :   1.3159 B(  2-C ,  6-C ) :   1.3157 B(  3-C ,  5-C ) :   1.3930
B(  3-C ,  8-H ) :   0.9798 B(  4-C ,  6-C ) :   1.3934 B(  4-C ,  9-H ) :   0.9799
B(  5-C , 10-H ) :   0.9835 B(  6-C , 11-H ) :   0.9835 B(  7-C , 12-H ) :   0.9582
B(  7-C , 13-H ) :   0.9582 B(  7-C , 14-H ) :   0.9532

Dispersion correction           -0.027990274
FINAL SINGLE POINT ENERGY      -326.503807576374

DIPOLE MOMENT
-------------

Method             : SCF
Type of density    : Electron Density
Multiplicity       :   1
Irrep              :   0
Energy             :  -326.4758173027212820 Eh
Relativity type    :
Basis              : AO
                                X                 Y                 Z
Electronic contribution:     -3.934970818      -0.000077418       0.030439693
Nuclear contribution   :      3.199282414       0.000489321      -0.054248280
                        -----------------------------------------
Total Dipole Moment    :     -0.735688403       0.000411903      -0.023808586
                        -----------------------------------------
Magnitude (a.u.)       :      0.736073668
Magnitude (Debye)      :      1.870950578

Rotational constants in cm-1:             0.181862             0.048197             0.038376
Rotational constants in MHz :          5452.074712          1444.895170          1150.492300

                             ****ORCA TERMINATED NORMALLY****
TOTAL RUN TIME: 0 days 0 hours 1 minutes 23 seconds 720 msec
