                         Program Version 6.0.1  -  RELEASE   -
|  1> ! wB97X-D3 def2-SVP OPT NormalSCF
|  2>
|  3> %pal
|  4> nprocs 28
|  5> end
|  6>
|  7> %maxcore 5000
|  8>
|  9> %scf
| 10>  SmearTemp 500
| 11> end
| 12>
| 13> * xyz 0 1
| 14> O          0.29040        2.69180       -1.03220
| 15> O         -4.31070       -0.42590        1.63560
| 16> C          0.96360        0.69900        0.13120
| 17> C         -0.39990        0.40560        0.51570
| 18> C         -2.51970       -0.66010        0.05970
| 19> C         -1.20520       -0.37760       -0.31140
| 20> C          3.30650        0.10170        0.16880
| 21> C          1.98560       -0.16460        0.52960
| 22> C          1.26710        1.82980       -0.62940
| 23> C         -0.90920        0.90620        1.71370
| 24> C         -3.02920       -0.15950        1.25790
| 25> C         -3.36780       -1.50000       -0.83750
| 26> C          4.39720       -0.82180        0.59540
| 27> C          3.60780        1.23180       -0.59100
| 28> C         -2.22370        0.62350        2.08490
| 29> C          2.58810        2.09590       -0.99000
| 30> C         -4.13330       -0.69030       -1.85080
| 31> C          4.65950       -1.92370       -0.39840
| 32> C         -5.46840       -0.63560       -1.91540
| 33> C          4.50110       -3.22600       -0.13640
| 34> H         -0.81010       -0.76760       -1.24750
| 35> H          1.75600       -1.04870        1.12160
| 36> H         -0.29500        1.51850        2.36980
| 37> H         -2.73510       -2.21550       -1.37960
| 38> H         -4.04480       -2.12650       -0.24250
| 39> H          5.32740       -0.25690        0.73970
| 40> H          4.16110       -1.23780        1.58380
| 41> H          4.63250        1.45000       -0.88010
| 42> H         -2.60750        1.02000        3.02110
| 43> H          2.83790        2.97250       -1.58190
| 44> H         -3.55590       -0.12960       -2.58200
| 45> H          5.01500       -1.63310       -1.38400
| 46> H          0.69310        3.41190       -1.54700
| 47> H         -4.48550        0.00370        2.49040
| 48> H         -5.95770       -0.03760       -2.67630
| 49> H         -6.09220       -1.18040       -1.21550
| 50> H          4.71560       -3.96940       -0.89620
| 51> H          4.15620       -3.57130        0.83190
| 52> *
| 53>
| 54>
| 55>                          ****END OF INPUT****
 Total Charge           Charge          ....    0
 Multiplicity           Mult            ....    1
 Number of Electrons    NEL             ....  142
Dispersion correction           -0.015760369
FINAL SINGLE POINT ENERGY      -846.316569814226
Dispersion correction             ... done (  0.0 sec)
Dispersion correction           -0.015726190
FINAL SINGLE POINT ENERGY      -846.323463075034
Dispersion correction             ... done (  0.0 sec)
Dispersion correction           -0.015756200
FINAL SINGLE POINT ENERGY      -846.324599094795
Dispersion correction             ... done (  0.0 sec)
FINAL SINGLE POINT ENERGY      -846.324850497009
FINAL SINGLE POINT ENERGY      -846.324960536670
FINAL SINGLE POINT ENERGY      -846.325042498540
FINAL SINGLE POINT ENERGY      -846.325157352766
FINAL SINGLE POINT ENERGY      -846.325217676633
FINAL SINGLE POINT ENERGY      -846.325376215266
FINAL SINGLE POINT ENERGY      -846.325639060105
FINAL SINGLE POINT ENERGY      -846.326372761814
FINAL SINGLE POINT ENERGY      -846.327095040095
FINAL SINGLE POINT ENERGY      -846.327581504778
FINAL SINGLE POINT ENERGY      -846.327673671374
FINAL SINGLE POINT ENERGY      -846.327722962048
FINAL SINGLE POINT ENERGY      -846.327741524368
FINAL SINGLE POINT ENERGY      -846.327745052768
Dispersion correction             ... done (  0.0 sec)
Dispersion correction           -0.015840083
FINAL SINGLE POINT ENERGY      -846.327745034091
Dispersion correction             ... done (  0.0 sec)
Dispersion correction           -0.015842037
FINAL SINGLE POINT ENERGY      -846.327748846090
Dispersion correction             ... done (  0.0 sec)
                    ***********************HURRAY********************

CARTESIAN COORDINATES (ANGSTROEM)
---------------------------------
  O      0.666823    3.321366   -0.040062
  O     -4.345427   -0.241455    1.281184
  C      1.078870    1.000770    0.270169
  C     -0.360428    0.725716    0.533222
  C     -2.316720   -0.709443    0.171341
  C     -0.984707   -0.377656   -0.065940
  C      3.366119    0.139673    0.005601
  C      2.006341   -0.044134    0.277128
  C      1.553031    2.295790   -0.021618
  C     -1.124331    1.517058    1.396649
  C     -3.055062    0.099394    1.050127
  C     -2.989140   -1.871930   -0.523759
  C      4.319654   -1.039057    0.040442
  C      3.802249    1.431017   -0.285307
  C     -2.454787    1.204166    1.656224
  C      2.905705    2.497479   -0.295785
  C     -3.803991   -1.425421   -1.710924
  C      3.889757   -2.165392   -0.859264
  C     -5.125663   -1.545718   -1.820451
  C      3.611606   -3.404908   -0.456275
  H     -0.409199   -1.000432   -0.758197
  H      1.649474   -1.051029    0.514633
  H     -0.673499    2.387157    1.876254
  H     -2.213395   -2.579101   -0.860212
  H     -3.636683   -2.408246    0.186229
  H      5.321974   -0.693433   -0.263009
  H      4.417638   -1.413541    1.073515
  H      4.857768    1.616613   -0.504441
  H     -3.039302    1.827339    2.341030
  H      3.259371    3.506952   -0.530360
  H     -3.238549   -0.948752   -2.522114
  H      3.790332   -1.912671   -1.922661
  H      1.122346    4.128267   -0.297439
  H     -4.742813    0.395261    1.882274
  H     -5.659294   -1.191523   -2.706485
  H     -5.723190   -1.995394   -1.021116
  H      3.298532   -4.178559   -1.162293
  H      3.689392   -3.693827    0.597388

 Multiplicity           Mult            ....    1
 Number of Electrons    NEL             ....  142
 Basis Dimension        Dim             ....  370

ORBITAL ENERGIES
----------------

  NO   OCC          E(Eh)            E(eV)
   0   2.0000     -19.270618      -524.3802
   1   2.0000     -19.268081      -524.3111
   2   2.0000     -10.353940      -281.7450
   3   2.0000     -10.348339      -281.5926
   4   2.0000     -10.297562      -280.2109
   5   2.0000     -10.296915      -280.1933
   6   2.0000     -10.296323      -280.1772
   7   2.0000     -10.295853      -280.1644
   8   2.0000     -10.293921      -280.1118
   9   2.0000     -10.293663      -280.1048
  10   2.0000     -10.291613      -280.0490
  11   2.0000     -10.291056      -280.0339
  12   2.0000     -10.290684      -280.0237
  13   2.0000     -10.290104      -280.0080
  14   2.0000     -10.289481      -279.9910
  15   2.0000     -10.289419      -279.9893
  16   2.0000     -10.288809      -279.9727
  17   2.0000     -10.286912      -279.9211
  18   2.0000     -10.285881      -279.8931
  19   2.0000     -10.275750      -279.6174
  20   2.0000      -1.171323       -31.8733
  21   2.0000      -1.168143       -31.7868
  22   2.0000      -0.977973       -26.6120
  23   2.0000      -0.961103       -26.1529
  24   2.0000      -0.912909       -24.8415
  25   2.0000      -0.904108       -24.6020
  26   2.0000      -0.878758       -23.9122
  27   2.0000      -0.852966       -23.2104
  28   2.0000      -0.849832       -23.1251
  29   2.0000      -0.824556       -22.4373
  30   2.0000      -0.785757       -21.3815
  31   2.0000      -0.777661       -21.1612
  32   2.0000      -0.742051       -20.1922
  33   2.0000      -0.721715       -19.6389
  34   2.0000      -0.709753       -19.3134
  35   2.0000      -0.673306       -18.3216
  36   2.0000      -0.656015       -17.8511
  37   2.0000      -0.652088       -17.7442
  38   2.0000      -0.643749       -17.5173
  39   2.0000      -0.639042       -17.3892
  40   2.0000      -0.598535       -16.2870
  41   2.0000      -0.596717       -16.2375
  42   2.0000      -0.571506       -15.5515
  43   2.0000      -0.560633       -15.2556
  44   2.0000      -0.549828       -14.9616
  45   2.0000      -0.545080       -14.8324
  46   2.0000      -0.533374       -14.5139
  47   2.0000      -0.531921       -14.4743
  48   2.0000      -0.528742       -14.3878
  49   2.0000      -0.526466       -14.3259
  50   2.0000      -0.515119       -14.0171
  51   2.0000      -0.503213       -13.6931
  52   2.0000      -0.502554       -13.6752
  53   2.0000      -0.494417       -13.4538
  54   2.0000      -0.489168       -13.3109
  55   2.0000      -0.481857       -13.1120
  56   2.0000      -0.466734       -12.7005
  57   2.0000      -0.453300       -12.3349
  58   2.0000      -0.450609       -12.2617
  59   2.0000      -0.443886       -12.0788
  60   2.0000      -0.436153       -11.8683
  61   2.0000      -0.430636       -11.7182
  62   2.0000      -0.429071       -11.6756
  63   2.0000      -0.422913       -11.5080
  64   2.0000      -0.417320       -11.3559
  65   2.0000      -0.355318        -9.6687
  66   2.0000      -0.347496        -9.4558
  67   2.0000      -0.343646        -9.3511
  68   2.0000      -0.329554        -8.9676
  69   2.0000      -0.309470        -8.4211
  70   2.0000      -0.283216        -7.7067
  71   0.0000       0.050238         1.3670
  72   0.0000       0.068769         1.8713
  73   0.0000       0.077363         2.1052
  74   0.0000       0.095127         2.5885
  75   0.0000       0.112418         3.0590

LOEWDIN ATOMIC CHARGES
----------------------
   0 O :   -0.050431
   1 O :   -0.051260
   2 C :   -0.046411
   3 C :   -0.043116
   4 C :   -0.056821
   5 C :   -0.012582
   6 C :   -0.051042
   7 C :   -0.007708
   8 C :    0.053145
   9 C :   -0.004378
  10 C :    0.053975
  11 C :   -0.027326
  12 C :   -0.028907
  13 C :   -0.026115
  14 C :   -0.087691
  15 C :   -0.087365
  16 C :   -0.025768
  17 C :   -0.026220
  18 C :   -0.068460
  19 C :   -0.073291
  20 H :    0.030301
  21 H :    0.032099
  22 H :    0.032152
  23 H :    0.035940
  24 H :    0.036773
  25 H :    0.036242
  26 H :    0.037810
  27 H :    0.029570
  28 H :    0.026903
  29 H :    0.027144
  30 H :    0.026963
  31 H :    0.029824
  32 H :    0.090877
  33 H :    0.091452
  34 H :    0.025917
  35 H :    0.024956
  36 H :    0.028366
  37 H :    0.024484

  Mayer bond orders larger than 0.100000
B(  0-O ,  8-C ) :   1.2085 B(  0-O , 32-H ) :   0.9621 B(  1-O , 10-C ) :   1.2127
B(  1-O , 33-H ) :   0.9626 B(  2-C ,  3-C ) :   0.9479 B(  2-C ,  7-C ) :   1.4281
B(  2-C ,  8-C ) :   1.3634 B(  3-C ,  5-C ) :   1.3723 B(  3-C ,  9-C ) :   1.4063
B(  4-C ,  5-C ) :   1.4226 B(  4-C , 10-C ) :   1.3661 B(  4-C , 11-C ) :   1.0249
B(  5-C , 20-H ) :   0.9903 B(  6-C ,  7-C ) :   1.3546 B(  6-C , 12-C ) :   1.0109
B(  6-C , 13-C ) :   1.4205 B(  7-C , 21-H ) :   0.9897 B(  8-C , 15-C ) :   1.3471
B(  9-C , 14-C ) :   1.3836 B(  9-C , 22-H ) :   0.9840 B( 10-C , 14-C ) :   1.3423
B( 11-C , 16-C ) :   1.0372 B( 11-C , 23-H ) :   0.9268 B( 11-C , 24-H ) :   0.9333
B( 12-C , 17-C ) :   1.0370 B( 12-C , 25-H ) :   0.9303 B( 12-C , 26-H ) :   0.9378
B( 13-C , 15-C ) :   1.3723 B( 13-C , 27-H ) :   0.9864 B( 14-C , 28-H ) :   0.9862
B( 15-C , 29-H ) :   0.9836 B( 16-C , 18-C ) :   2.0183 B( 16-C , 30-H ) :   0.9605
B( 17-C , 19-C ) :   1.9966 B( 17-C , 31-H ) :   0.9663 B( 18-C , 34-H ) :   0.9585
B( 18-C , 35-H ) :   0.9617 B( 19-C , 36-H ) :   0.9591 B( 19-C , 37-H ) :   0.9635

Dispersion correction           -0.015841678
FINAL SINGLE POINT ENERGY      -846.327749923788

DIPOLE MOMENT
-------------

Method             : SCF
Type of density    : Electron Density
Multiplicity       :   1
Irrep              :   0
Energy             :  -846.3119082459505762 Eh
Relativity type    :
Basis              : AO
                                X                 Y                 Z
Electronic contribution:     -1.899757557      10.693153713       4.567190885
Nuclear contribution   :      2.199504509      -9.854718116      -4.319736557
                        -----------------------------------------
Total Dipole Moment    :      0.299746952       0.838435598       0.247454329
                        -----------------------------------------
Magnitude (a.u.)       :      0.924151574
Magnitude (Debye)      :      2.349006622

Rotational constants in cm-1:             0.016394             0.006256             0.005009
Rotational constants in MHz :           491.493255           187.537701           150.170242

                             ****ORCA TERMINATED NORMALLY****
TOTAL RUN TIME: 0 days 0 hours 6 minutes 58 seconds 346 msec
