                         Program Version 6.0.1  -  RELEASE   -
|  1> ! B3LYP def2-SVP Opt TightSCF ALLPOP KEEPDENS
|  2>
|  3> %pal
|  4> 	nprocs 8
|  5> end
|  6>
|  7> * xyz 0 1
|  8> O          0.00000        0.00000        0.00000
|  9> O          1.33000        0.00000        0.00000
| 10> *
| 11>
| 12>                          ****END OF INPUT****
 Total Charge           Charge          ....    0
 Multiplicity           Mult            ....    1
 Number of Electrons    NEL             ....   16
FINAL SINGLE POINT ENERGY      -150.063099112707
FINAL SINGLE POINT ENERGY      -150.081036033242
FINAL SINGLE POINT ENERGY      -150.081452984334
FINAL SINGLE POINT ENERGY      -150.081719115229
FINAL SINGLE POINT ENERGY      -150.081720828779
                    ***********************HURRAY********************

CARTESIAN COORDINATES (ANGSTROEM)
---------------------------------
  O      0.064285    0.000000    0.000000
  O      1.265715    0.000000    0.000000

 Multiplicity           Mult            ....    1
 Number of Electrons    NEL             ....   16
 Basis Dimension        Dim             ....   28

ORBITAL ENERGIES
----------------

  NO   OCC          E(Eh)            E(eV)
   0   2.0000     -19.279222      -524.6143
   1   2.0000     -19.279002      -524.6083
   2   2.0000      -1.274380       -34.6777
   3   2.0000      -0.772212       -21.0129
   4   2.0000      -0.529774       -14.4159
   5   2.0000      -0.520512       -14.1638
   6   2.0000      -0.512794       -13.9538
   7   2.0000      -0.245387        -6.6773
   8   0.0000      -0.174205        -4.7404
   9   0.0000       0.243572         6.6279
  10   0.0000       0.734309        19.9816
  11   0.0000       0.825700        22.4684
  12   0.0000       0.829744        22.5785

MULLIKEN ATOMIC CHARGES
-----------------------
   0 O :   -0.000000
   1 O :    0.000000
Sum of atomic charges:    0.0000000

LOEWDIN ATOMIC CHARGES
----------------------
   0 O :   -0.000000
   1 O :    0.000000

  Mayer bond orders larger than 0.100000
B(  0-O ,  1-O ) :   1.8410

FINAL SINGLE POINT ENERGY      -150.081720832960

DIPOLE MOMENT
-------------

Method             : SCF
Type of density    : Electron Density
Multiplicity       :   1
Irrep              :   0
Energy             :  -150.0817208329601442 Eh
Relativity type    :
Basis              : AO
                                X                 Y                 Z
Electronic contribution:      0.000000001       0.000000000      -0.000000000
Nuclear contribution   :      0.000000000       0.000000000       0.000000000
                        -----------------------------------------
Total Dipole Moment    :      0.000000001       0.000000000      -0.000000000
                        -----------------------------------------
Magnitude (a.u.)       :      0.000000001
Magnitude (Debye)      :      0.000000003

Rotational constants in cm-1:             0.000000             1.459946             1.459946
Rotational constants in MHz :             0.000000         43768.066064         43768.066064

                             ****ORCA TERMINATED NORMALLY****
TOTAL RUN TIME: 0 days 0 hours 0 minutes 18 seconds 307 msec
