                         Program Version 6.0.1  -  RELEASE   -
|  1> ! B3LYP def2-SVP Opt TightSCF ALLPOP KEEPDENS
|  2>
|  3> %pal
|  4> 	nprocs 8
|  5> end
|  6>
|  7> * xyz -1 2
|  8> O          0.00000        0.00000        0.00000
|  9> O          1.33000        0.00000        0.00000
| 10> *
| 11>
| 12>                          ****END OF INPUT****
 Total Charge           Charge          ....   -1
 Multiplicity           Mult            ....    2
 Number of Electrons    NEL             ....   17
FINAL SINGLE POINT ENERGY      -150.118265250358
FINAL SINGLE POINT ENERGY      -150.118330744260
FINAL SINGLE POINT ENERGY      -150.118335054193
                    ***********************HURRAY********************

CARTESIAN COORDINATES (ANGSTROEM)
---------------------------------
  O     -0.004591    0.000000    0.000000
  O      1.334591    0.000000    0.000000

 Multiplicity           Mult            ....    2
 Number of Electrons    NEL             ....   17
 Basis Dimension        Dim             ....   28

ORBITAL ENERGIES
----------------
                 SPIN UP ORBITALS
  NO   OCC          E(Eh)            E(eV)
   0   1.0000     -18.807324      -511.7733
   1   1.0000     -18.807043      -511.7657
   2   1.0000      -0.735800       -20.0221
   3   1.0000      -0.396181       -10.7806
   4   1.0000      -0.089633        -2.4390
   5   1.0000      -0.086658        -2.3581
   6   1.0000      -0.049425        -1.3449
   7   1.0000       0.099433         2.7057
   8   1.0000       0.143303         3.8995
   9   0.0000       0.506393        13.7796
  10   0.0000       1.112428        30.2707
  11   0.0000       1.174646        31.9637
  12   0.0000       1.196838        32.5676
  13   0.0000       1.227512        33.4023

                 SPIN DOWN ORBITALS
  NO   OCC          E(Eh)            E(eV)
   0   1.0000     -18.793237      -511.3900
   1   1.0000     -18.793006      -511.3837
   2   1.0000      -0.705645       -19.2016
   3   1.0000      -0.353731        -9.6255
   4   1.0000      -0.069690        -1.8964
   5   1.0000      -0.036996        -1.0067
   6   1.0000      -0.002918        -0.0794
   7   1.0000       0.158683         4.3180
   8   0.0000       0.267720         7.2850
   9   0.0000       0.527444        14.3525
  10   0.0000       1.128939        30.7200
  11   0.0000       1.186697        32.2917
  12   0.0000       1.236288        33.6411

MULLIKEN ATOMIC CHARGES AND SPIN POPULATIONS
--------------------------------------------
   0 O :   -0.500000    0.500000
   1 O :   -0.500000    0.500000
Sum of atomic charges         :   -1.0000000

LOEWDIN ATOMIC CHARGES AND SPIN POPULATIONS
-------------------------------------------
   0 O :   -0.500000    0.500000
   1 O :   -0.500000    0.500000

  Mayer bond orders larger than 0.100000
B(  0-O ,  1-O ) :   1.4002

FINAL SINGLE POINT ENERGY      -150.118335057860

DIPOLE MOMENT
-------------

Method             : SCF
Type of density    : Electron Density
Multiplicity       :   2
Irrep              :   0
Energy             :  -150.1183350578599516 Eh
Relativity type    :
Basis              : AO
                                X                 Y                 Z
Electronic contribution:      0.000000004      -0.000000000      -0.000000001
Nuclear contribution   :      0.000000000       0.000000000       0.000000000
                        -----------------------------------------
Total Dipole Moment    :      0.000000004      -0.000000000      -0.000000001
                        -----------------------------------------
Magnitude (a.u.)       :      0.000000004
Magnitude (Debye)      :      0.000000011

Rotational constants in cm-1:             0.000000             1.175045             1.175045
Rotational constants in MHz :             0.000000         35226.955227         35226.955227

                             ****ORCA TERMINATED NORMALLY****
TOTAL RUN TIME: 0 days 0 hours 0 minutes 12 seconds 278 msec
