                         Program Version 6.0.1  -  RELEASE   -
|  1> ! B3LYP def2-SVP OPT TightSCF D3BJ
|  2>
|  3>
|  4> %maxcore 3000
|  5>
|  6> %pal
|  7> nprocs 40
|  8> end
|  9>
| 10> * xyz 0 1
| 11>   O           2.65649636259722     -0.47225647465979      1.34601967572431
| 12>   O           2.72590803050352     -0.32659986625729     -0.81395240623087
| 13>   N           2.15584431603809     -0.21066142059212      0.26141395243552
| 14>   N          -3.15534034716612      1.70036718667686      0.21267699460614
| 15>   C           0.77292601333439      0.27673745228189      0.24975183007654
| 16>   C          -1.86049344062733      1.19307280562640      0.22733258158746
| 17>   C           0.08816843375511      0.41916800350656      1.45776326847350
| 18>   C           0.16631005263456      0.59226579958604     -0.96930275060723
| 19>   C          -1.22404971584233      0.87616169192646      1.44381041845377
| 20>   C          -1.14323495431093      1.05203285808297     -0.98090344118219
| 21>   H           0.59464339829403      0.16391935566362      2.38794494596239
| 22>   H           0.73678563838436      0.47416782875892     -1.89010386117005
| 23>   H          -1.76980624443434      0.98685352931606      2.38453121558288
| 24>   H          -1.62220117594380      1.34921813838842     -1.91527894985989
| 25>   H          -3.68865023487106      1.55895315368196      1.07035595146289
| 26>   H          -3.70309740230744      1.48339805279916     -0.61598292444306
| 27>   O          -2.73240797150462      3.67205306226871     -1.91030492937757
| 28>   H          -1.80434157747472      3.94183042417959     -1.87492316324347
| 29>   H          -2.92898578475857      3.43556898146552     -0.98836313705110
| 30> *
| 31>
| 32>
| 33>                          ****END OF INPUT****
 Total Charge           Charge          ....    0
 Multiplicity           Mult            ....    1
 Number of Electrons    NEL             ....   82
 Basis Dimension        Dim             ....  194

ORBITAL ENERGIES
----------------

  NO   OCC          E(Eh)            E(eV)
   0   2.0000     -19.150760      -521.1187
   1   2.0000     -19.150671      -521.1162
   2   2.0000     -19.122146      -520.3400
   3   2.0000     -14.549180      -395.9033
   4   2.0000     -14.371961      -391.0809
   5   2.0000     -10.260931      -279.2141
   6   2.0000     -10.238265      -278.5974
   7   2.0000     -10.218571      -278.0614
   8   2.0000     -10.217223      -278.0248
   9   2.0000     -10.213017      -277.9103
  10   2.0000     -10.208198      -277.7792
  11   2.0000      -1.211192       -32.9582
  12   2.0000      -1.036783       -28.2123
  13   2.0000      -0.981425       -26.7059
  14   2.0000      -0.944240       -25.6941
  15   2.0000      -0.871776       -23.7222
  16   2.0000      -0.785441       -21.3729
  17   2.0000      -0.766982       -20.8706
  18   2.0000      -0.684623       -18.6295
  19   2.0000      -0.639941       -17.4137
  20   2.0000      -0.592280       -16.1168
  21   2.0000      -0.556161       -15.1339
  22   2.0000      -0.545642       -14.8477
  23   2.0000      -0.531138       -14.4530
  24   2.0000      -0.530535       -14.4366
  25   2.0000      -0.511962       -13.9312
  26   2.0000      -0.496472       -13.5097
  27   2.0000      -0.464032       -12.6270
  28   2.0000      -0.459092       -12.4925
  29   2.0000      -0.447428       -12.1751
  30   2.0000      -0.427075       -11.6213
  31   2.0000      -0.413682       -11.2569
  32   2.0000      -0.373113       -10.1529
  33   2.0000      -0.371202       -10.1009
  34   2.0000      -0.344775        -9.3818
  35   2.0000      -0.303409        -8.2562
  36   2.0000      -0.301779        -8.2118
  37   2.0000      -0.296120        -8.0578
  38   2.0000      -0.284103        -7.7308
  39   2.0000      -0.280997        -7.6463
  40   2.0000      -0.244640        -6.6570
  41   0.0000      -0.079347        -2.1592
  42   0.0000      -0.033244        -0.9046
  43   0.0000       0.006123         0.1666
  44   0.0000       0.031301         0.8517
  45   0.0000       0.061084         1.6622

MULLIKEN ATOMIC CHARGES
-----------------------
   0 O :   -0.251291
   1 O :   -0.250103
   2 N :    0.234507
   3 N :   -0.095820
   4 C :    0.172317
   5 C :    0.075122
   6 C :   -0.021237
   7 C :   -0.018978
   8 C :   -0.018872
   9 C :   -0.045526
  10 H :    0.006682
  11 H :    0.007240
  12 H :   -0.027931
  13 H :   -0.019172
  14 H :    0.117899
  15 H :    0.138659
  16 O :   -0.298284
  17 H :    0.156281
  18 H :    0.138507
Sum of atomic charges:    0.0000000

LOEWDIN ATOMIC CHARGES
----------------------
   0 O :   -0.216408
   1 O :   -0.215194
   2 N :    0.276432
   3 N :   -0.014431
   4 C :   -0.050926
   5 C :    0.033975
   6 C :    0.008490
   7 C :    0.007358
   8 C :   -0.056307
   9 C :   -0.055560
  10 H :    0.041854
  11 H :    0.042003
  12 H :    0.028279
  13 H :    0.027220
  14 H :    0.079235
  15 H :    0.083358
  16 O :   -0.146379
  17 H :    0.076848
  18 H :    0.050153

  Mayer bond orders larger than 0.100000
B(  0-O ,  1-O ) :   0.2712 B(  0-O ,  2-N ) :   1.5382 B(  1-O ,  2-N ) :   1.5392
B(  2-N ,  4-C ) :   0.8769 B(  3-N ,  5-C ) :   1.1927 B(  3-N , 14-H ) :   0.9445
B(  3-N , 15-H ) :   0.9374 B(  4-C ,  6-C ) :   1.3608 B(  4-C ,  7-C ) :   1.3490
B(  5-C ,  8-C ) :   1.3134 B(  5-C ,  9-C ) :   1.3148 B(  6-C ,  8-C ) :   1.3703
B(  6-C , 10-H ) :   0.9815 B(  7-C ,  9-C ) :   1.3663 B(  7-C , 11-H ) :   0.9842
B(  8-C , 12-H ) :   0.9866 B(  9-C , 13-H ) :   0.9812 B( 16-O , 17-H ) :   0.9992
B( 16-O , 18-H ) :   0.9731

Dispersion correction           -0.032753880
FINAL SINGLE POINT ENERGY      -567.850919838291
Dispersion correction             ... done (  0.1 sec)
Dispersion correction           -0.032771807
FINAL SINGLE POINT ENERGY      -567.850944195282
Dispersion correction             ... done (  0.1 sec)
Dispersion correction           -0.032786394
FINAL SINGLE POINT ENERGY      -567.850899713550
Dispersion correction             ... done (  0.1 sec)
FINAL SINGLE POINT ENERGY      -567.850954384674
FINAL SINGLE POINT ENERGY      -567.850959923788
FINAL SINGLE POINT ENERGY      -567.850980667515
FINAL SINGLE POINT ENERGY      -567.850992412929
FINAL SINGLE POINT ENERGY      -567.851012346781
FINAL SINGLE POINT ENERGY      -567.851024355713
FINAL SINGLE POINT ENERGY      -567.851031530319
FINAL SINGLE POINT ENERGY      -567.855711184327
FINAL SINGLE POINT ENERGY      -567.855728329533
FINAL SINGLE POINT ENERGY      -567.855744142632
FINAL SINGLE POINT ENERGY      -567.855749959662
FINAL SINGLE POINT ENERGY      -567.855759437514
FINAL SINGLE POINT ENERGY      -567.855766058570
FINAL SINGLE POINT ENERGY      -567.855778343096
Dispersion correction           -0.031560175
FINAL SINGLE POINT ENERGY      -567.855788118072
Dispersion correction             ... done (  0.1 sec)
Dispersion correction           -0.031585316
FINAL SINGLE POINT ENERGY      -567.855805602549
Dispersion correction             ... done (  0.1 sec)

CARTESIAN COORDINATES (ANGSTROEM)
---------------------------------
  O      2.582158   -1.031974    1.339958
  O      2.899233   -0.251778   -0.655988
  N      2.214396   -0.413817    0.347528
  N     -2.931070    1.847867    0.391675
  C      0.878735    0.165392    0.361282
  C     -1.694468    1.285834    0.392583
  C      0.068433    0.009166    1.491769
  C      0.418227    0.871191   -0.756106
  C     -1.201899    0.561978    1.507328
  C     -0.851682    1.423830   -0.743674
  H      0.455643   -0.548083    2.344248
  H      1.073269    0.972549   -1.620993
  H     -1.836131    0.442944    2.389809
  H     -1.221067    1.970545   -1.613536
  H     -3.531770    1.772557    1.199893
  H     -3.248589    2.358977   -0.429196
  O     -3.469530    3.449237   -1.972977
  H     -3.471771    3.075752   -2.866186
  H     -2.867642    4.204083   -2.024933

Dispersion correction           -0.031619830
FINAL SINGLE POINT ENERGY      -567.855833765236
Dispersion correction             ... done (  0.1 sec)
                             ****ORCA TERMINATED NORMALLY****
TOTAL RUN TIME: 0 days 0 hours 11 minutes 33 seconds 749 msec
