                         Program Version 6.0.1  -  RELEASE   -
|  1> ! B3LYP def2-SVP OPT TightSCF ALLPOP KEEPDENS D3BJ
|  2>
|  3> %pal
|  4> nprocs 4
|  5> end
|  6>
|  7> * xyz 0 1
|  8> O          0.94900       -0.03600       -0.06349
|  9> H          1.91688       -0.05890       -0.10388
| 10> H          0.67015       -0.49371       -0.87076
| 11> *
| 12>
| 13>                          ****END OF INPUT****
 Total Charge           Charge          ....    0
 Multiplicity           Mult            ....    1
 Number of Electrons    NEL             ....   10
Dispersion correction           -0.000573901
FINAL SINGLE POINT ENERGY       -76.321813218989
Dispersion correction             ... done (  0.0 sec)
Dispersion correction           -0.000573927
FINAL SINGLE POINT ENERGY       -76.321840497797
Dispersion correction             ... done (  0.0 sec)
Dispersion correction           -0.000573941
FINAL SINGLE POINT ENERGY       -76.321843887982
Dispersion correction             ... done (  0.0 sec)
Dispersion correction           -0.000573949
FINAL SINGLE POINT ENERGY       -76.321844558086
Dispersion correction             ... done (  0.0 sec)
                    ***********************HURRAY********************

CARTESIAN COORDINATES (ANGSTROEM)
---------------------------------
  O      0.947227   -0.034756   -0.061295
  H      1.912633   -0.061311   -0.108132
  H      0.676170   -0.492544   -0.868703

 Multiplicity           Mult            ....    1
 Number of Electrons    NEL             ....   10
 Basis Dimension        Dim             ....   24

ORBITAL ENERGIES
----------------

  NO   OCC          E(Eh)            E(eV)
   0   2.0000     -19.116163      -520.1772
   1   2.0000      -0.976145       -26.5623
   2   2.0000      -0.508036       -13.8244
   3   2.0000      -0.364384        -9.9154
   4   2.0000      -0.288119        -7.8401
   5   0.0000       0.047715         1.2984
   6   0.0000       0.126636         3.4459
   7   0.0000       0.558333        15.1930
   8   0.0000       0.623838        16.9755
   9   0.0000       0.920657        25.0524

MULLIKEN ATOMIC CHARGES
-----------------------
   0 O :   -0.293686
   1 H :    0.146859
   2 H :    0.146828
Sum of atomic charges:   -0.0000000

LOEWDIN ATOMIC CHARGES
----------------------
   0 O :   -0.150122
   1 H :    0.075057
   2 H :    0.075064

  Mayer bond orders larger than 0.100000
B(  0-O ,  1-H ) :   1.0081 B(  0-O ,  2-H ) :   1.0082

Dispersion correction           -0.000573949
FINAL SINGLE POINT ENERGY       -76.321844560573

DIPOLE MOMENT
-------------

Method             : SCF
Type of density    : Electron Density
Multiplicity       :   1
Irrep              :   0
Energy             :   -76.3212706112462342 Eh
Relativity type    :
Basis              : AO
                                X                 Y                 Z
Electronic contribution:     -0.122785573       0.085665744       0.151049126
Nuclear contribution   :      0.577948820      -0.403148070      -0.711039081
                        -----------------------------------------
Total Dipole Moment    :      0.455163247      -0.317482326      -0.559989955
                        -----------------------------------------
Magnitude (a.u.)       :      0.788389090
Magnitude (Debye)      :      2.003925813

Rotational constants in cm-1:            26.037956            14.585164             9.348565
Rotational constants in MHz :        780598.291110        437252.225612        280262.918487

                             ****ORCA TERMINATED NORMALLY****
TOTAL RUN TIME: 0 days 0 hours 0 minutes 18 seconds 94 msec
