                         Program Version 6.0.1  -  RELEASE   -
|  1> ! B3LYP def2-SVP OPT TightSCF D3BJ
|  2>
|  3> %pal
|  4> nprocs 28
|  5> end
|  6>
|  7> * xyz 0 1
|  8> N          4.01505        6.27252        0.79497
|  9> C          8.24758        6.27245        0.82460
| 10> C          5.39107        6.27247        0.80373
| 11> C          7.51421        5.07684        0.82228
| 12> C          7.51421        7.46812        0.82163
| 13> C          6.12087        5.06672        0.81142
| 14> C          6.12091        7.47826        0.81076
| 15> C          9.75594        6.27261        0.79960
| 16> H          8.04779        4.12137        0.83112
| 17> H          8.04779        8.42361        0.82995
| 18> H          5.58394        4.11353        0.81341
| 19> H          5.58398        8.43145        0.81223
| 20> H         10.16826        7.16009        1.30533
| 21> H         10.16815        5.37986        1.29599
| 22> H         10.14620        6.27809       -0.23434
| 23> H          3.49789        7.13811        0.78995
| 24> H          3.49782        5.40697        0.79042
| 25> O          4.04920        6.77139       -0.23681
| 26> H          4.61704        7.47504       -0.57934
| 27> H          4.35990        5.98861       -0.71174
| 28> *
| 29>
| 30>                          ****END OF INPUT****
 Total Charge           Charge          ....    0
 Multiplicity           Mult            ....    1
 Number of Electrons    NEL             ....   68
Dispersion correction           -0.034021385
FINAL SINGLE POINT ENERGY      -402.162741187166
Dispersion correction             ... done (  0.1 sec)
Dispersion correction           -0.033959572
FINAL SINGLE POINT ENERGY      -402.271797726603
Dispersion correction             ... done (  0.1 sec)
Dispersion correction           -0.034035032
FINAL SINGLE POINT ENERGY      -402.349443469896
Dispersion correction             ... done (  0.1 sec)
FINAL SINGLE POINT ENERGY      -402.433581059345
FINAL SINGLE POINT ENERGY      -402.525272731954
FINAL SINGLE POINT ENERGY      -402.613504105195
FINAL SINGLE POINT ENERGY      -402.680655424044
FINAL SINGLE POINT ENERGY      -402.727471031884
FINAL SINGLE POINT ENERGY      -402.777974534101
FINAL SINGLE POINT ENERGY      -402.797526131397
FINAL SINGLE POINT ENERGY      -402.840520948389
FINAL SINGLE POINT ENERGY      -402.840525592043
FINAL SINGLE POINT ENERGY      -402.840529840927
FINAL SINGLE POINT ENERGY      -402.840535588876
FINAL SINGLE POINT ENERGY      -402.840544389685
FINAL SINGLE POINT ENERGY      -402.840556393340
FINAL SINGLE POINT ENERGY      -402.840570082214
Dispersion correction             ... done (  0.1 sec)
Dispersion correction           -0.032147807
FINAL SINGLE POINT ENERGY      -402.840580783979
Dispersion correction             ... done (  0.1 sec)
Dispersion correction           -0.032158412
FINAL SINGLE POINT ENERGY      -402.840585722109
Dispersion correction             ... done (  0.1 sec)
                    ***********************HURRAY********************

CARTESIAN COORDINATES (ANGSTROEM)
---------------------------------
  N      4.062929    6.046235    1.317625
  C      8.282570    6.232906    0.865818
  C      5.442052    6.092469    1.155811
  C      7.628641    5.014966    1.103718
  C      7.481944    7.382459    0.792692
  C      6.243069    4.937966    1.240891
  C      6.096660    7.324167    0.940968
  C      9.777579    6.301767    0.676850
  H      8.218532    4.096344    1.178825
  H      7.955731    8.355686    0.630954
  H      5.768288    3.968393    1.418911
  H      5.508485    8.246427    0.934995
  H     10.188125    7.254255    1.047727
  H     10.288944    5.484109    1.208391
  H     10.057461    6.221678   -0.389187
  H      3.563322    6.707323    0.723366
  H      3.660992    5.115781    1.271517
  O      3.715392    7.538623   -1.248729
  H      4.602174    7.890844   -1.078630
  H      3.904910    6.655712   -1.597354

 Multiplicity           Mult            ....    1
 Number of Electrons    NEL             ....   68
 Basis Dimension        Dim             ....  181

ORBITAL ENERGIES
----------------

  NO   OCC          E(Eh)            E(eV)
   0   2.0000     -19.138921      -520.7965
   1   2.0000     -14.319155      -389.6440
   2   2.0000     -10.218945      -278.0716
   3   2.0000     -10.181229      -277.0453
   4   2.0000     -10.180486      -277.0251
   5   2.0000     -10.179543      -276.9994
   6   2.0000     -10.178483      -276.9706
   7   2.0000     -10.177379      -276.9406
   8   2.0000     -10.176751      -276.9235
   9   2.0000      -0.996993       -27.1296
  10   2.0000      -0.899595       -24.4792
  11   2.0000      -0.826337       -22.4858
  12   2.0000      -0.740894       -20.1607
  13   2.0000      -0.729308       -19.8455
  14   2.0000      -0.659861       -17.9557
  15   2.0000      -0.602474       -16.3941
  16   2.0000      -0.571391       -15.5483
  17   2.0000      -0.526036       -14.3142
  18   2.0000      -0.509455       -13.8630
  19   2.0000      -0.500797       -13.6274
  20   2.0000      -0.453396       -12.3375
  21   2.0000      -0.434567       -11.8252
  22   2.0000      -0.420344       -11.4381
  23   2.0000      -0.411417       -11.1952
  24   2.0000      -0.410608       -11.1732
  25   2.0000      -0.389754       -10.6058
  26   2.0000      -0.376322       -10.2402
  27   2.0000      -0.366570        -9.9749
  28   2.0000      -0.350651        -9.5417
  29   2.0000      -0.332513        -9.0481
  30   2.0000      -0.312025        -8.4906
  31   2.0000      -0.293707        -7.9922
  32   2.0000      -0.248570        -6.7639
  33   2.0000      -0.196294        -5.3414
  34   0.0000      -0.005146        -0.1400
  35   0.0000       0.014242         0.3875
  36   0.0000       0.043361         1.1799
  37   0.0000       0.070690         1.9236
  38   0.0000       0.076804         2.0899

MULLIKEN ATOMIC CHARGES
-----------------------
   0 N :   -0.080385
   1 C :   -0.036558
   2 C :    0.039046
   3 C :   -0.016889
   4 C :   -0.017765
   5 C :   -0.022987
   6 C :   -0.067855
   7 C :    0.081336
   8 H :   -0.037327
   9 H :   -0.037485
  10 H :   -0.050756
  11 H :   -0.031368
  12 H :    0.009768
  13 H :    0.007984
  14 H :    0.021997
  15 H :    0.095349
  16 H :    0.094366
  17 O :   -0.270166
  18 H :    0.158336
  19 H :    0.161360
Sum of atomic charges:   -0.0000000

LOEWDIN ATOMIC CHARGES
----------------------
   0 N :   -0.040617
   1 C :   -0.058625
   2 C :    0.013874
   3 C :   -0.019795
   4 C :   -0.023513
   5 C :   -0.069890
   6 C :   -0.078834
   7 C :   -0.046278
   8 H :    0.022544
   9 H :    0.022252
  10 H :    0.019223
  11 H :    0.020701
  12 H :    0.027486
  13 H :    0.027057
  14 H :    0.030557
  15 H :    0.050916
  16 H :    0.064451
  17 O :   -0.116930
  18 H :    0.074503
  19 H :    0.080919

  Mayer bond orders larger than 0.100000
B(  0-N ,  2-C ) :   1.2089 B(  0-N , 15-H ) :   0.9226 B(  0-N , 16-H ) :   0.9514
B(  1-C ,  3-C ) :   1.3807 B(  1-C ,  4-C ) :   1.3786 B(  1-C ,  7-C ) :   1.0648
B(  2-C ,  5-C ) :   1.3332 B(  2-C ,  6-C ) :   1.3233 B(  3-C ,  5-C ) :   1.3794
B(  3-C ,  8-H ) :   0.9802 B(  4-C ,  6-C ) :   1.3769 B(  4-C ,  9-H ) :   0.9818
B(  5-C , 10-H ) :   0.9841 B(  6-C , 11-H ) :   0.9780 B(  7-C , 12-H ) :   0.9581
B(  7-C , 13-H ) :   0.9583 B(  7-C , 14-H ) :   0.9530 B( 15-H , 17-O ) :   0.1184
B( 17-O , 18-H ) :   0.9877 B( 17-O , 19-H ) :   0.9944

Dispersion correction           -0.032161490
FINAL SINGLE POINT ENERGY      -402.840587835588

DIPOLE MOMENT
-------------

Method             : SCF
Type of density    : Electron Density
Multiplicity       :   1
Irrep              :   0
Energy             :  -402.8084263457016050 Eh
Relativity type    :
Basis              : AO
                                X                 Y                 Z
Electronic contribution:     -2.772477328      -0.543130866       1.517786094
Nuclear contribution   :      2.930872136       0.075971757      -2.036103551
                        -----------------------------------------
Total Dipole Moment    :      0.158394807      -0.467159108      -0.518317457
                        -----------------------------------------
Magnitude (a.u.)       :      0.715527451
Magnitude (Debye)      :      1.818726245

Rotational constants in cm-1:             0.092433             0.030477             0.025642
Rotational constants in MHz :          2771.071162           913.691540           768.716453

                             ****ORCA TERMINATED NORMALLY****
TOTAL RUN TIME: 0 days 0 hours 8 minutes 56 seconds 39 msec
