                         Program Version 6.0.1  -  RELEASE   -
|  1> ! B3LYP def2-SVP OPT TightSCF ALLPOP KEEPDENS D3BJ
|  2>
|  3> %pal
|  4> nprocs 14
|  5> end
|  6>
|  7> * xyz 0 1
|  8> O          0.29040        2.69180       -1.03220
|  9> O         -4.31070       -0.42590        1.63560
| 10> C          0.96360        0.69900        0.13120
| 11> C         -0.39990        0.40560        0.51570
| 12> C         -2.51970       -0.66010        0.05970
| 13> C         -1.20520       -0.37760       -0.31140
| 14> C          3.30650        0.10170        0.16880
| 15> C          1.98560       -0.16460        0.52960
| 16> C          1.26710        1.82980       -0.62940
| 17> C         -0.90920        0.90620        1.71370
| 18> C         -3.02920       -0.15950        1.25790
| 19> C         -3.36780       -1.50000       -0.83750
| 20> C          4.39720       -0.82180        0.59540
| 21> C          3.60780        1.23180       -0.59100
| 22> C         -2.22370        0.62350        2.08490
| 23> C          2.58810        2.09590       -0.99000
| 24> C         -4.13330       -0.69030       -1.85080
| 25> C          4.65950       -1.92370       -0.39840
| 26> C         -5.46840       -0.63560       -1.91540
| 27> C          4.50110       -3.22600       -0.13640
| 28> H         -0.81010       -0.76760       -1.24750
| 29> H          1.75600       -1.04870        1.12160
| 30> H         -0.29500        1.51850        2.36980
| 31> H         -2.73510       -2.21550       -1.37960
| 32> H         -4.04480       -2.12650       -0.24250
| 33> H          5.32740       -0.25690        0.73970
| 34> H          4.16110       -1.23780        1.58380
| 35> H          4.63250        1.45000       -0.88010
| 36> H         -2.60750        1.02000        3.02110
| 37> H          2.83790        2.97250       -1.58190
| 38> H         -3.55590       -0.12960       -2.58200
| 39> H          5.01500       -1.63310       -1.38400
| 40> H          0.69310        3.41190       -1.54700
| 41> H         -4.48550        0.00370        2.49040
| 42> H         -5.95770       -0.03760       -2.67630
| 43> H         -6.09220       -1.18040       -1.21550
| 44> H          4.71560       -3.96940       -0.89620
| 45> H          4.15620       -3.57130        0.83190
| 46> *
| 47>
| 48>
| 49>                          ****END OF INPUT****
 Total Charge           Charge          ....    0
 Multiplicity           Mult            ....    1
 Number of Electrons    NEL             ....  142
Dispersion correction           -0.078430919
FINAL SINGLE POINT ENERGY      -846.096572476554
Dispersion correction             ... done (  0.1 sec)
Dispersion correction           -0.077899089
FINAL SINGLE POINT ENERGY      -846.103632863125
Dispersion correction             ... done (  0.0 sec)
Dispersion correction           -0.077854790
FINAL SINGLE POINT ENERGY      -846.104785458944
Dispersion correction             ... done (  0.1 sec)
FINAL SINGLE POINT ENERGY      -846.105030151652
FINAL SINGLE POINT ENERGY      -846.105184033882
FINAL SINGLE POINT ENERGY      -846.105294749940
FINAL SINGLE POINT ENERGY      -846.105427473612
FINAL SINGLE POINT ENERGY      -846.105588633441
FINAL SINGLE POINT ENERGY      -846.105979342376
FINAL SINGLE POINT ENERGY      -846.106477328537
FINAL SINGLE POINT ENERGY      -846.108309139471
FINAL SINGLE POINT ENERGY      -846.108615534747
FINAL SINGLE POINT ENERGY      -846.108812718152
FINAL SINGLE POINT ENERGY      -846.109007723129
FINAL SINGLE POINT ENERGY      -846.109198122429
FINAL SINGLE POINT ENERGY      -846.109277483035
FINAL SINGLE POINT ENERGY      -846.109293358545
Dispersion correction             ... done (  0.0 sec)
Dispersion correction           -0.078776198
FINAL SINGLE POINT ENERGY      -846.109296320290
Dispersion correction             ... done (  0.0 sec)
Dispersion correction           -0.078780171
FINAL SINGLE POINT ENERGY      -846.109297817697
Dispersion correction             ... done (  0.1 sec)
                    ***********************HURRAY********************

CARTESIAN COORDINATES (ANGSTROEM)
---------------------------------
  O      0.171690    2.057246   -1.802725
  O     -4.093571   -1.399029    1.232661
  C      1.050346    0.444506   -0.274697
  C     -0.305395   -0.008963    0.123537
  C     -2.604705   -0.656007   -0.453420
  C     -1.339462   -0.192201   -0.812935
  C      3.494118    0.268234    0.005916
  C      2.187003   -0.132062    0.311259
  C      1.257724    1.472379   -1.224712
  C     -0.586309   -0.306190    1.466332
  C     -2.854163   -0.945741    0.902383
  C     -3.716934   -0.800485   -1.469755
  C      4.679642   -0.392949    0.686038
  C      3.663690    1.284465   -0.938877
  C     -1.842972   -0.770883    1.852322
  C      2.556443    1.878716   -1.546186
  C     -4.638150    0.394721   -1.456949
  C      4.666704   -1.892876    0.565789
  C     -5.920806    0.372055   -1.088332
  C      4.624100   -2.745812    1.592897
  H     -1.148607    0.030136   -1.863220
  H      2.042810   -0.949452    1.021547
  H      0.182952   -0.156000    2.226689
  H     -3.266383   -0.903905   -2.471505
  H     -4.296793   -1.713952   -1.267466
  H      5.607405    0.003244    0.237321
  H      4.705088   -0.115308    1.754873
  H      4.669292    1.619038   -1.208331
  H     -2.046613   -0.992006    2.905191
  H      2.698269    2.677347   -2.281971
  H     -4.175928    1.346007   -1.750676
  H      4.673208   -2.284922   -0.459296
  H      0.470608    2.763201   -2.390447
  H     -4.133634   -1.554311    2.185145
  H     -6.532081    1.279261   -1.086240
  H     -6.402135   -0.556626   -0.765117
  H      4.608969   -3.828600    1.439678
  H      4.605380   -2.389875    2.628982

 Multiplicity           Mult            ....    1
 Number of Electrons    NEL             ....  142
 Basis Dimension        Dim             ....  370

ORBITAL ENERGIES
----------------

  NO   OCC          E(Eh)            E(eV)
   0   2.0000     -19.162162      -521.4289
   1   2.0000     -19.160370      -521.3802
   2   2.0000     -10.244344      -278.7628
   3   2.0000     -10.239451      -278.6296
   4   2.0000     -10.189154      -277.2610
   5   2.0000     -10.188671      -277.2478
   6   2.0000     -10.187276      -277.2099
   7   2.0000     -10.185973      -277.1744
   8   2.0000     -10.185562      -277.1632
   9   2.0000     -10.184129      -277.1242
  10   2.0000     -10.182955      -277.0923
  11   2.0000     -10.182577      -277.0820
  12   2.0000     -10.181953      -277.0650
  13   2.0000     -10.181779      -277.0603
  14   2.0000     -10.180999      -277.0391
  15   2.0000     -10.180153      -277.0160
  16   2.0000     -10.178354      -276.9671
  17   2.0000     -10.178276      -276.9650
  18   2.0000     -10.177031      -276.9311
  19   2.0000     -10.168295      -276.6934
  20   2.0000      -1.049095       -28.5473
  21   2.0000      -1.046602       -28.4795
  22   2.0000      -0.852799       -23.2058
  23   2.0000      -0.836490       -22.7620
  24   2.0000      -0.790652       -21.5147
  25   2.0000      -0.782131       -21.2829
  26   2.0000      -0.757283       -20.6067
  27   2.0000      -0.732757       -19.9393
  28   2.0000      -0.729643       -19.8546
  29   2.0000      -0.706202       -19.2167
  30   2.0000      -0.668539       -18.1919
  31   2.0000      -0.661085       -17.9890
  32   2.0000      -0.623915       -16.9776
  33   2.0000      -0.618938       -16.8422
  34   2.0000      -0.589495       -16.0410
  35   2.0000      -0.563395       -15.3308
  36   2.0000      -0.546924       -14.8825
  37   2.0000      -0.541015       -14.7218
  38   2.0000      -0.538304       -14.6480
  39   2.0000      -0.530413       -14.4333
  40   2.0000      -0.495884       -13.4937
  41   2.0000      -0.478230       -13.0133
  42   2.0000      -0.471603       -12.8330
  43   2.0000      -0.454993       -12.3810
  44   2.0000      -0.446129       -12.1398
  45   2.0000      -0.440611       -11.9896
  46   2.0000      -0.430292       -11.7088
  47   2.0000      -0.428843       -11.6694
  48   2.0000      -0.427158       -11.6236
  49   2.0000      -0.422430       -11.4949
  50   2.0000      -0.406662       -11.0658
  51   2.0000      -0.402430       -10.9507
  52   2.0000      -0.401095       -10.9143
  53   2.0000      -0.393443       -10.7061
  54   2.0000      -0.388731       -10.5779
  55   2.0000      -0.376794       -10.2531
  56   2.0000      -0.374472       -10.1899
  57   2.0000      -0.357151        -9.7186
  58   2.0000      -0.353980        -9.6323
  59   2.0000      -0.344338        -9.3699
  60   2.0000      -0.339322        -9.2334
  61   2.0000      -0.335227        -9.1220
  62   2.0000      -0.328796        -8.9470
  63   2.0000      -0.327369        -8.9082
  64   2.0000      -0.320363        -8.7175
  65   2.0000      -0.260927        -7.1002
  66   2.0000      -0.258233        -7.0269
  67   2.0000      -0.250510        -6.8167
  68   2.0000      -0.240265        -6.5380
  69   2.0000      -0.223580        -6.0839
  70   2.0000      -0.200599        -5.4586
  71   0.0000      -0.021688        -0.5902
  72   0.0000      -0.004862        -0.1323
  73   0.0000       0.003215         0.0875
  74   0.0000       0.016099         0.4381
  75   0.0000       0.030206         0.8219

MULLIKEN ATOMIC CHARGES
-----------------------
   0 O :   -0.183602
   1 O :   -0.185992
   2 C :    0.053980
   3 C :    0.080618
   4 C :   -0.088256
   5 C :   -0.044274
   6 C :   -0.025595
   7 C :   -0.064732
   8 C :    0.116202
   9 C :   -0.023463
  10 C :    0.140646
  11 C :    0.198632
  12 C :    0.189684
  13 C :   -0.021548
  14 C :   -0.048863
  15 C :   -0.047638
  16 C :   -0.067217
  17 C :   -0.079858
  18 C :   -0.018742
  19 C :   -0.030435
  20 H :   -0.037307
  21 H :   -0.034788
  22 H :   -0.028915
  23 H :   -0.007712
  24 H :   -0.001348
  25 H :   -0.005852
  26 H :    0.004020
  27 H :   -0.034252
  28 H :   -0.050626
  29 H :   -0.048790
  30 H :   -0.004887
  31 H :   -0.000067
  32 H :    0.172876
  33 H :    0.173591
  34 H :    0.012638
  35 H :    0.011219
  36 H :    0.019848
  37 H :    0.010807
Sum of atomic charges:    0.0000000

LOEWDIN ATOMIC CHARGES
----------------------
   0 O :   -0.048164
   1 O :   -0.048945
   2 C :   -0.039564
   3 C :   -0.035371
   4 C :   -0.047371
   5 C :   -0.003266
   6 C :   -0.043020
   7 C :   -0.009089
   8 C :    0.051166
   9 C :   -0.013602
  10 C :    0.051629
  11 C :   -0.018394
  12 C :   -0.020457
  13 C :   -0.025441
  14 C :   -0.080921
  15 C :   -0.079189
  16 C :   -0.018961
  17 C :   -0.018479
  18 C :   -0.063457
  19 C :   -0.067855
  20 H :    0.023270
  21 H :    0.025982
  22 H :    0.025353
  23 H :    0.031041
  24 H :    0.031100
  25 H :    0.031741
  26 H :    0.032186
  27 H :    0.023289
  28 H :    0.020883
  29 H :    0.021071
  30 H :    0.022260
  31 H :    0.025093
  32 H :    0.090540
  33 H :    0.091303
  34 H :    0.020778
  35 H :    0.020202
  36 H :    0.023628
  37 H :    0.019032

  Mayer bond orders larger than 0.100000
B(  0-O ,  8-C ) :   1.2012 B(  0-O , 32-H ) :   0.9599 B(  1-O , 10-C ) :   1.2109
B(  1-O , 33-H ) :   0.9608 B(  2-C ,  3-C ) :   0.9588 B(  2-C ,  7-C ) :   1.3871
B(  2-C ,  8-C ) :   1.3463 B(  3-C ,  5-C ) :   1.3311 B(  3-C ,  9-C ) :   1.3853
B(  4-C ,  5-C ) :   1.4081 B(  4-C , 10-C ) :   1.3494 B(  4-C , 11-C ) :   1.0451
B(  5-C , 20-H ) :   0.9844 B(  6-C ,  7-C ) :   1.3384 B(  6-C , 12-C ) :   1.0271
B(  6-C , 13-C ) :   1.3924 B(  7-C , 21-H ) :   0.9844 B(  8-C , 15-C ) :   1.3310
B(  9-C , 14-C ) :   1.3511 B(  9-C , 22-H ) :   0.9800 B( 10-C , 14-C ) :   1.3284
B( 11-C , 16-C ) :   1.0538 B( 11-C , 23-H ) :   0.9008 B( 11-C , 24-H ) :   0.9124
B( 12-C , 17-C ) :   1.0516 B( 12-C , 25-H ) :   0.9067 B( 12-C , 26-H ) :   0.9166
B( 13-C , 15-C ) :   1.3468 B( 13-C , 27-H ) :   0.9817 B( 14-C , 28-H ) :   0.9784
B( 15-C , 29-H ) :   0.9752 B( 16-C , 18-C ) :   2.0193 B( 16-C , 30-H ) :   0.9561
B( 17-C , 19-C ) :   1.9950 B( 17-C , 31-H ) :   0.9634 B( 18-C , 34-H ) :   0.9477
B( 18-C , 35-H ) :   0.9503 B( 19-C , 36-H ) :   0.9485 B( 19-C , 37-H ) :   0.9522

Dispersion correction           -0.078777239
FINAL SINGLE POINT ENERGY      -846.109298338044

DIPOLE MOMENT
-------------

Method             : SCF
Type of density    : Electron Density
Multiplicity       :   1
Irrep              :   0
Energy             :  -846.0305210993930132 Eh
Relativity type    :
Basis              : AO
                                X                 Y                 Z
Electronic contribution:     -2.210384239       3.908117146      -0.741388856
Nuclear contribution   :      2.570046078      -3.583179793       0.912309161
                        -----------------------------------------
Total Dipole Moment    :      0.359661839       0.324937352       0.170920304
                        -----------------------------------------
Magnitude (a.u.)       :      0.513959796
Magnitude (Debye)      :      1.306381981

Rotational constants in cm-1:             0.021397             0.005544             0.004656
Rotational constants in MHz :           641.453025           166.208995           139.579891

                             ****ORCA TERMINATED NORMALLY****
TOTAL RUN TIME: 0 days 0 hours 14 minutes 13 seconds 755 msec
