                         Program Version 6.0.1  -  RELEASE   -
|  1> # avogadro generated ORCA input file
|  2> # Basic Mode
|  3> #
|  4> ! MP2 SP def2-SVP
|  5>
|  6> %pal
|  7> nprocs 34
|  8> end
|  9>
| 10> * xyz 0 1
| 11>    C        3.36385       -1.99584        0.38646
| 12>    C        3.66055       -0.57285        0.43521
| 13>    C        3.24083        0.19236        1.52993
| 14>    C        2.65579       -2.60009        1.43242
| 15>    C        3.06154       -2.34719       -0.99412
| 16>    C        3.52891       -0.04432       -0.91554
| 17>    C        2.68634        1.51935        1.31924
| 18>    C        2.49219       -0.43431        2.60563
| 19>    C        1.61945       -3.57839        1.13966
| 20>    C        2.20962       -1.80097        2.56343
| 21>    C        2.06732       -3.28952       -1.27468
| 22>    C        3.16250       -1.13814       -1.79683
| 23>    C        2.96525        1.21888       -1.11221
| 24>    C        1.58281        1.70918        2.24615
| 25>    C        2.55208        2.00833        0.02176
| 26>    C        1.46576        0.50539        3.03265
| 27>    C        1.33369       -3.91928       -0.18663
| 28>    C        0.53446       -3.38568        2.09143
| 29>    C        0.89500       -2.28044        2.96586
| 30>    C        1.13794       -3.06222       -2.37168
| 31>    C        2.25990       -0.90971       -2.83933
| 32>    C        2.00935        1.46506       -2.17527
| 33>    C        0.46725        2.47722        1.87801
| 34>    C        1.41956        2.82563       -0.34340
| 35>    C        0.20174        0.05572        3.39970
| 36>    C       -0.04719       -4.08725       -0.61375
| 37>    C       -0.79306       -3.54695        1.68045
| 38>    C       -0.08459       -1.37201        3.38264
| 39>    C       -0.16724       -3.56163       -1.96546
| 40>    C        1.23252       -1.89436       -3.13820
| 41>    C        1.68026        0.41383       -3.03167
| 42>    C        1.00726        2.43337       -1.70273
| 43>    C        0.57561        3.29583        0.66903
| 44>    C       -0.88661        1.96651        2.18929
| 45>    C       -0.98028        0.78308        2.96108
| 46>    C       -1.08994       -3.90896        0.30161
| 47>    C       -1.81255       -2.61139        2.12910
| 48>    C       -1.45957       -1.53957        2.95751
| 49>    C       -1.32709       -2.88258       -2.35126
| 50>    C        0.02672       -1.18089       -3.52921
| 51>    C        0.30692        0.24734       -3.45636
| 52>    C       -0.33714        2.27445       -2.12066
| 53>    C       -1.50375        3.04089        0.03062
| 54>    C       -1.90782        2.18383        1.14331
| 55>    C       -2.01310       -0.21479        2.71689
| 56>    C       -2.29807       -3.20460       -0.09952
| 57>    C       -2.74662       -2.40642        1.03166
| 58>    C       -2.41515       -2.70096       -1.40056
| 59>    C       -1.22687       -1.67322       -3.15453
| 60>    C       -0.66507        1.14123       -3.00315
| 61>    C       -1.51406        2.47096       -1.24894
| 62>    C       -2.83732        1.16909        0.87888
| 63>    C       -2.91733       -0.03068        1.67699
| 64>    C       -3.29656       -1.14096        0.81622
| 65>    C       -2.99147       -1.38385       -1.62202
| 66>    C       -2.25031       -0.74901       -2.70222
| 67>    C       -1.96738        0.61833       -2.63686
| 68>    C       -2.44353        1.40100       -1.52375
| 69>    C       -3.16361        0.80567       -0.48959
| 70>    C       -3.43391       -0.62162       -0.53423
| 71>    H        1.01079        5.70594        4.39439
| 72>    C       -0.02502        6.07921        4.37886
| 73>    H       -0.14197        6.80711        5.19798
| 74>    H        0.31794        7.60819        2.86708
| 75>    C       -0.34142        6.74847        3.05268
| 76>    O       -0.09377        5.86121        1.93801
| 77>    H       -0.70881        5.23855        4.56885
| 78>    C       -1.06593        5.01385        1.58305
| 79>    C       -0.59369        4.18199        0.36495
| 80>    O       -2.14368        4.93390        2.10853
| 81>    H       -1.38979        7.07988        3.01259
| 82>    C       -0.37576        5.20146       -0.77482
| 83>    H       -3.62271        6.46433       -2.59559
| 84>    O       -1.54600        5.77178       -1.08241
| 85>    H       -1.12736        6.33894       -3.03390
| 86>    O        0.67586        5.47844       -1.28485
| 87>    C       -1.53396        6.78416       -2.11160
| 88>    C       -2.95187        7.28288       -2.29224
| 89>    H       -2.97708        8.05869       -3.07354
| 90>    H       -3.33996        7.71875       -1.35860
| 91>    H       -0.84376        7.58709       -1.80568
| 92> *
| 93>
| 94>
| 95>                          ****END OF INPUT****

CARTESIAN COORDINATES (ANGSTROEM)
---------------------------------
  C      3.363850   -1.995840    0.386460
  C      3.660550   -0.572850    0.435210
  C      3.240830    0.192360    1.529930
  C      2.655790   -2.600090    1.432420
  C      3.061540   -2.347190   -0.994120
  C      3.528910   -0.044320   -0.915540
  C      2.686340    1.519350    1.319240
  C      2.492190   -0.434310    2.605630
  C      1.619450   -3.578390    1.139660
  C      2.209620   -1.800970    2.563430
  C      2.067320   -3.289520   -1.274680
  C      3.162500   -1.138140   -1.796830
  C      2.965250    1.218880   -1.112210
  C      1.582810    1.709180    2.246150
  C      2.552080    2.008330    0.021760
  C      1.465760    0.505390    3.032650
  C      1.333690   -3.919280   -0.186630
  C      0.534460   -3.385680    2.091430
  C      0.895000   -2.280440    2.965860
  C      1.137940   -3.062220   -2.371680
  C      2.259900   -0.909710   -2.839330
  C      2.009350    1.465060   -2.175270
  C      0.467250    2.477220    1.878010
  C      1.419560    2.825630   -0.343400
  C      0.201740    0.055720    3.399700
  C     -0.047190   -4.087250   -0.613750
  C     -0.793060   -3.546950    1.680450
  C     -0.084590   -1.372010    3.382640
  C     -0.167240   -3.561630   -1.965460
  C      1.232520   -1.894360   -3.138200
  C      1.680260    0.413830   -3.031670
  C      1.007260    2.433370   -1.702730
  C      0.575610    3.295830    0.669030
  C     -0.886610    1.966510    2.189290
  C     -0.980280    0.783080    2.961080
  C     -1.089940   -3.908960    0.301610
  C     -1.812550   -2.611390    2.129100
  C     -1.459570   -1.539570    2.957510
  C     -1.327090   -2.882580   -2.351260
  C      0.026720   -1.180890   -3.529210
  C      0.306920    0.247340   -3.456360
  C     -0.337140    2.274450   -2.120660
  C     -1.503750    3.040890    0.030620
  C     -1.907820    2.183830    1.143310
  C     -2.013100   -0.214790    2.716890
  C     -2.298070   -3.204600   -0.099520
  C     -2.746620   -2.406420    1.031660
  C     -2.415150   -2.700960   -1.400560
  C     -1.226870   -1.673220   -3.154530
  C     -0.665070    1.141230   -3.003150
  C     -1.514060    2.470960   -1.248940
  C     -2.837320    1.169090    0.878880
  C     -2.917330   -0.030680    1.676990
  C     -3.296560   -1.140960    0.816220
  C     -2.991470   -1.383850   -1.622020
  C     -2.250310   -0.749010   -2.702220
  C     -1.967380    0.618330   -2.636860
  C     -2.443530    1.401000   -1.523750
  C     -3.163610    0.805670   -0.489590
  C     -3.433910   -0.621620   -0.534230
  H      1.010790    5.705940    4.394390
  C     -0.025020    6.079210    4.378860
  H     -0.141970    6.807110    5.197980
  H      0.317940    7.608190    2.867080
  C     -0.341420    6.748470    3.052680
  O     -0.093770    5.861210    1.938010
  H     -0.708810    5.238550    4.568850
  C     -1.065930    5.013850    1.583050
  C     -0.593690    4.181990    0.364950
  O     -2.143680    4.933900    2.108530
  H     -1.389790    7.079880    3.012590
  C     -0.375760    5.201460   -0.774820
  H     -3.622710    6.464330   -2.595590
  O     -1.546000    5.771780   -1.082410
  H     -1.127360    6.338940   -3.033900
  O      0.675860    5.478440   -1.284850
  C     -1.533960    6.784160   -2.111600
  C     -2.951870    7.282880   -2.292240
  H     -2.977080    8.058690   -3.073540
  H     -3.339960    7.718750   -1.358600
  H     -0.843760    7.587090   -1.805680

 Total Charge           Charge          ....    0
 Multiplicity           Mult            ....    1
 Number of Electrons    NEL             ....  444
 Basis Dimension        Dim             .... 1044

ORBITAL ENERGIES
----------------

  NO   OCC          E(Eh)            E(eV)
   0   2.0000     -20.619535      -561.0861
   1   2.0000     -20.617908      -561.0418
   2   2.0000     -20.569700      -559.7300
   3   2.0000     -20.568141      -559.6876
   4   2.0000     -11.418248      -310.7063
   5   2.0000     -11.416830      -310.6677
   6   2.0000     -11.312832      -307.8378
   7   2.0000     -11.312306      -307.8235
   8   2.0000     -11.311343      -307.7973
   9   2.0000     -11.310740      -307.7809
  10   2.0000     -11.309707      -307.7528
  11   2.0000     -11.305472      -307.6375
  12   2.0000     -11.302629      -307.5602
  13   2.0000     -11.301577      -307.5315
  14   2.0000     -11.300284      -307.4964
  15   2.0000     -11.299521      -307.4756
  16   2.0000     -11.290976      -307.2431
  17   2.0000     -11.290891      -307.2408
  18   2.0000     -11.290684      -307.2351
  19   2.0000     -11.289990      -307.2162
  20   2.0000     -11.289805      -307.2112
  21   2.0000     -11.289779      -307.2105
  22   2.0000     -11.289636      -307.2066
  23   2.0000     -11.289558      -307.2045
  24   2.0000     -11.289430      -307.2010
  25   2.0000     -11.289405      -307.2003
  26   2.0000     -11.289327      -307.1982
  27   2.0000     -11.289290      -307.1972
  28   2.0000     -11.289131      -307.1929
  29   2.0000     -11.288975      -307.1886
  30   2.0000     -11.288894      -307.1864
  31   2.0000     -11.288867      -307.1857
  32   2.0000     -11.288826      -307.1846
  33   2.0000     -11.288767      -307.1830
  34   2.0000     -11.288619      -307.1790
  35   2.0000     -11.288537      -307.1767
  36   2.0000     -11.288423      -307.1736
  37   2.0000     -11.288330      -307.1711
  38   2.0000     -11.288225      -307.1682
  39   2.0000     -11.288117      -307.1653
  40   2.0000     -11.288039      -307.1632
  41   2.0000     -11.287972      -307.1613
  42   2.0000     -11.287926      -307.1601
  43   2.0000     -11.287869      -307.1585
  44   2.0000     -11.287858      -307.1582
  45   2.0000     -11.287748      -307.1552
  46   2.0000     -11.287642      -307.1523
  47   2.0000     -11.287573      -307.1505
  48   2.0000     -11.287540      -307.1496
  49   2.0000     -11.287439      -307.1468
  50   2.0000     -11.287257      -307.1419
  51   2.0000     -11.287152      -307.1390
  52   2.0000     -11.286985      -307.1345
  53   2.0000     -11.286964      -307.1339
  54   2.0000     -11.286825      -307.1301
  55   2.0000     -11.286648      -307.1253
  56   2.0000     -11.286428      -307.1193
  57   2.0000     -11.286162      -307.1121
  58   2.0000     -11.285779      -307.1017
  59   2.0000     -11.285591      -307.0965
  60   2.0000     -11.285423      -307.0920
  61   2.0000     -11.285344      -307.0898
  62   2.0000     -11.285309      -307.0889
  63   2.0000     -11.285174      -307.0852
  64   2.0000     -11.284695      -307.0722
  65   2.0000     -11.284171      -307.0579
  66   2.0000     -11.282769      -307.0198
  67   2.0000     -11.282693      -307.0177
  68   2.0000     -11.281577      -306.9873
  69   2.0000     -11.244168      -305.9694
  70   2.0000     -11.242651      -305.9281
  71   2.0000      -1.477596       -40.2074
  72   2.0000      -1.467524       -39.9334
  73   2.0000      -1.373285       -37.3690
  74   2.0000      -1.370425       -37.2912
  75   2.0000      -1.283731       -34.9321
  76   2.0000      -1.261161       -34.3179
  77   2.0000      -1.259012       -34.2595
  78   2.0000      -1.258525       -34.2462
  79   2.0000      -1.217080       -33.1184
  80   2.0000      -1.215372       -33.0719
  81   2.0000      -1.213071       -33.0093
  82   2.0000      -1.212202       -32.9857
  83   2.0000      -1.209097       -32.9012
  84   2.0000      -1.170257       -31.8443
  85   2.0000      -1.163238       -31.6533
  86   2.0000      -1.161659       -31.6104
  87   2.0000      -1.130564       -30.7642
  88   2.0000      -1.129878       -30.7456
  89   2.0000      -1.123019       -30.5589
  90   2.0000      -1.122290       -30.5391
  91   2.0000      -1.093554       -29.7571
  92   2.0000      -1.068073       -29.0637
  93   2.0000      -1.059060       -28.8185
  94   2.0000      -1.058303       -28.7979
  95   2.0000      -1.056001       -28.7353
  96   2.0000      -1.052119       -28.6296
  97   2.0000      -1.046138       -28.4669
  98   2.0000      -1.043615       -28.3982
  99   2.0000      -1.041329       -28.3360
 100   2.0000      -1.039300       -28.2808
 101   2.0000      -1.037944       -28.2439
 102   2.0000      -1.003055       -27.2945
 103   2.0000      -0.982255       -26.7285
 104   2.0000      -0.972630       -26.4666
 105   2.0000      -0.969933       -26.3932
 106   2.0000      -0.968824       -26.3630
 107   2.0000      -0.962902       -26.2019
 108   2.0000      -0.948019       -25.7969
 109   2.0000      -0.944356       -25.6972
 110   2.0000      -0.935516       -25.4567
 111   2.0000      -0.904552       -24.6141
 112   2.0000      -0.895430       -24.3659
 113   2.0000      -0.892081       -24.2748
 114   2.0000      -0.884787       -24.0763
 115   2.0000      -0.870825       -23.6963
 116   2.0000      -0.863155       -23.4876
 117   2.0000      -0.852749       -23.2045
 118   2.0000      -0.849973       -23.1290
 119   2.0000      -0.847310       -23.0565
 120   2.0000      -0.845937       -23.0191
 121   2.0000      -0.845581       -23.0094
 122   2.0000      -0.844778       -22.9876
 123   2.0000      -0.830288       -22.5933
 124   2.0000      -0.808675       -22.0052
 125   2.0000      -0.792974       -21.5779
 126   2.0000      -0.782598       -21.2956
 127   2.0000      -0.769641       -20.9430
 128   2.0000      -0.761546       -20.7227
 129   2.0000      -0.756113       -20.5749
 130   2.0000      -0.754473       -20.5302
 131   2.0000      -0.746543       -20.3145
 132   2.0000      -0.741482       -20.1768
 133   2.0000      -0.737205       -20.0604
 134   2.0000      -0.735144       -20.0043
 135   2.0000      -0.732011       -19.9190
 136   2.0000      -0.730574       -19.8799
 137   2.0000      -0.712141       -19.3784
 138   2.0000      -0.710562       -19.3354
 139   2.0000      -0.706008       -19.2115
 140   2.0000      -0.704325       -19.1657
 141   2.0000      -0.697239       -18.9728
 142   2.0000      -0.694712       -18.9041
 143   2.0000      -0.681520       -18.5451
 144   2.0000      -0.677554       -18.4372
 145   2.0000      -0.671055       -18.2603
 146   2.0000      -0.669148       -18.2085
 147   2.0000      -0.659437       -17.9442
 148   2.0000      -0.654004       -17.7964
 149   2.0000      -0.647784       -17.6271
 150   2.0000      -0.644243       -17.5308
 151   2.0000      -0.642657       -17.4876
 152   2.0000      -0.640132       -17.4189
 153   2.0000      -0.631385       -17.1809
 154   2.0000      -0.629209       -17.1216
 155   2.0000      -0.626776       -17.0555
 156   2.0000      -0.624177       -16.9847
 157   2.0000      -0.622324       -16.9343
 158   2.0000      -0.620415       -16.8824
 159   2.0000      -0.618175       -16.8214
 160   2.0000      -0.617244       -16.7961
 161   2.0000      -0.612932       -16.6787
 162   2.0000      -0.610849       -16.6220
 163   2.0000      -0.610026       -16.5997
 164   2.0000      -0.606044       -16.4913
 165   2.0000      -0.601607       -16.3706
 166   2.0000      -0.599840       -16.3225
 167   2.0000      -0.596531       -16.2324
 168   2.0000      -0.590910       -16.0795
 169   2.0000      -0.588636       -16.0176
 170   2.0000      -0.586298       -15.9540
 171   2.0000      -0.580854       -15.8059
 172   2.0000      -0.577812       -15.7231
 173   2.0000      -0.573268       -15.5994
 174   2.0000      -0.572219       -15.5709
 175   2.0000      -0.568656       -15.4739
 176   2.0000      -0.561598       -15.2819
 177   2.0000      -0.558407       -15.1950
 178   2.0000      -0.558078       -15.1861
 179   2.0000      -0.557831       -15.1794
 180   2.0000      -0.553039       -15.0489
 181   2.0000      -0.549570       -14.9546
 182   2.0000      -0.543544       -14.7906
 183   2.0000      -0.542858       -14.7719
 184   2.0000      -0.532972       -14.5029
 185   2.0000      -0.527111       -14.3434
 186   2.0000      -0.525734       -14.3059
 187   2.0000      -0.522639       -14.2217
 188   2.0000      -0.515736       -14.0339
 189   2.0000      -0.515048       -14.0152
 190   2.0000      -0.513061       -13.9611
 191   2.0000      -0.510011       -13.8781
 192   2.0000      -0.508067       -13.8252
 193   2.0000      -0.507103       -13.7990
 194   2.0000      -0.503268       -13.6946
 195   2.0000      -0.502477       -13.6731
 196   2.0000      -0.502363       -13.6700
 197   2.0000      -0.489728       -13.3262
 198   2.0000      -0.480478       -13.0745
 199   2.0000      -0.476012       -12.9529
 200   2.0000      -0.474612       -12.9148
 201   2.0000      -0.473006       -12.8711
 202   2.0000      -0.467131       -12.7113
 203   2.0000      -0.460973       -12.5437
 204   2.0000      -0.457902       -12.4602
 205   2.0000      -0.457389       -12.4462
 206   2.0000      -0.452137       -12.3033
 207   2.0000      -0.447755       -12.1840
 208   2.0000      -0.360926        -9.8213
 209   2.0000      -0.359348        -9.7784
 210   2.0000      -0.358822        -9.7640
 211   2.0000      -0.358043        -9.7429
 212   2.0000      -0.351224        -9.5573
 213   2.0000      -0.350023        -9.5246
 214   2.0000      -0.349431        -9.5085
 215   2.0000      -0.348349        -9.4791
 216   2.0000      -0.342281        -9.3139
 217   2.0000      -0.285931        -7.7806
 218   2.0000      -0.285496        -7.7687
 219   2.0000      -0.285294        -7.7632
 220   2.0000      -0.284989        -7.7549
 221   2.0000      -0.284402        -7.7390
 222   0.0000      -0.026669        -0.7257
 223   0.0000      -0.025110        -0.6833
 224   0.0000      -0.024012        -0.6534
 225   0.0000       0.033365         0.9079
 226   0.0000       0.035470         0.9652

MULLIKEN ATOMIC CHARGES
-----------------------
   0 C :    0.000930
   1 C :   -0.003702
   2 C :    0.005480
   3 C :   -0.002197
   4 C :   -0.001255
   5 C :   -0.002550
   6 C :   -0.011313
   7 C :   -0.002198
   8 C :   -0.001526
   9 C :    0.001176
  10 C :    0.000454
  11 C :   -0.001004
  12 C :    0.017232
  13 C :   -0.008687
  14 C :   -0.000003
  15 C :    0.008426
  16 C :   -0.000938
  17 C :   -0.000121
  18 C :   -0.002146
  19 C :   -0.002518
  20 C :    0.000301
  21 C :   -0.010106
  22 C :    0.014656
  23 C :    0.060477
  24 C :   -0.014093
  25 C :   -0.001191
  26 C :   -0.000673
  27 C :    0.003761
  28 C :    0.000275
  29 C :    0.002329
  30 C :   -0.006068
  31 C :    0.032632
  32 C :   -0.005799
  33 C :   -0.004902
  34 C :   -0.012441
  35 C :   -0.000933
  36 C :   -0.001373
  37 C :    0.002674
  38 C :   -0.001458
  39 C :   -0.000743
  40 C :   -0.006395
  41 C :   -0.024894
  42 C :    0.005713
  43 C :    0.095007
  44 C :   -0.011960
  45 C :   -0.002558
  46 C :    0.001085
  47 C :    0.001470
  48 C :   -0.001027
  49 C :   -0.004017
  50 C :    0.007266
  51 C :   -0.016632
  52 C :    0.010507
  53 C :   -0.001833
  54 C :   -0.004912
  55 C :   -0.001925
  56 C :    0.010762
  57 C :    0.004277
  58 C :   -0.010458
  59 C :    0.005486
  60 H :    0.055038
  61 C :   -0.098389
  62 H :    0.047351
  63 H :    0.053843
  64 C :    0.224119
  65 O :   -0.550696
  66 H :    0.063346
  67 C :    0.658375
  68 C :   -0.417025
  69 O :   -0.356987
  70 H :    0.063743
  71 C :    0.647959
  72 H :    0.054952
  73 O :   -0.548017
  74 H :    0.052486
  75 O :   -0.355491
  76 C :    0.213524
  77 C :   -0.062011
  78 H :    0.044413
  79 H :    0.052547
  80 H :    0.051090
Sum of atomic charges:   -0.0000000

LOEWDIN ATOMIC CHARGES
----------------------
   0 C :    0.000850
   1 C :   -0.001659
   2 C :    0.000182
   3 C :   -0.001734
   4 C :   -0.000984
   5 C :   -0.000818
   6 C :   -0.003610
   7 C :   -0.000089
   8 C :    0.000049
   9 C :   -0.000228
  10 C :   -0.000472
  11 C :   -0.000902
  12 C :    0.001191
  13 C :   -0.002726
  14 C :    0.002881
  15 C :   -0.003352
  16 C :   -0.001179
  17 C :   -0.001972
  18 C :    0.000808
  19 C :   -0.000557
  20 C :   -0.000277
  21 C :    0.001571
  22 C :   -0.012414
  23 C :    0.005093
  24 C :   -0.000776
  25 C :   -0.000558
  26 C :    0.000285
  27 C :   -0.001226
  28 C :   -0.001034
  29 C :    0.000797
  30 C :   -0.002525
  31 C :    0.012588
  32 C :    0.033829
  33 C :   -0.001653
  34 C :    0.000471
  35 C :   -0.000425
  36 C :   -0.001260
  37 C :    0.000638
  38 C :   -0.000661
  39 C :   -0.000125
  40 C :   -0.004414
  41 C :   -0.009053
  42 C :    0.041963
  43 C :    0.014718
  44 C :   -0.003447
  45 C :   -0.001327
  46 C :    0.000152
  47 C :    0.000603
  48 C :   -0.001533
  49 C :    0.000329
  50 C :   -0.019360
  51 C :   -0.004738
  52 C :    0.001310
  53 C :    0.000155
  54 C :   -0.002167
  55 C :   -0.001733
  56 C :   -0.001065
  57 C :   -0.002943
  58 C :   -0.000946
  59 C :    0.000676
  60 H :    0.026330
  61 C :   -0.047903
  62 H :    0.028912
  63 H :    0.022362
  64 C :    0.142215
  65 O :   -0.174200
  66 H :    0.028986
  67 C :    0.209297
  68 C :   -0.088491
  69 O :   -0.227228
  70 H :    0.021274
  71 C :    0.209252
  72 H :    0.028287
  73 O :   -0.176818
  74 H :    0.019266
  75 O :   -0.221257
  76 C :    0.142846
  77 C :   -0.041935
  78 H :    0.028070
  79 H :    0.027216
  80 H :    0.018320

  Mayer bond orders larger than 0.100000
B(  0-C ,  1-C ) :   1.1826 B(  0-C ,  3-C ) :   1.4840 B(  0-C ,  4-C ) :   1.1772
B(  1-C ,  2-C ) :   1.4850 B(  1-C ,  5-C ) :   1.1799 B(  2-C ,  6-C ) :   1.1847
B(  2-C ,  7-C ) :   1.1797 B(  3-C ,  8-C ) :   1.1788 B(  3-C ,  9-C ) :   1.1807
B(  4-C , 10-C ) :   1.4888 B(  4-C , 11-C ) :   1.1787 B(  5-C , 11-C ) :   1.1782
B(  5-C , 12-C ) :   1.4886 B(  6-C , 13-C ) :   1.1854 B(  6-C , 14-C ) :   1.4823
B(  7-C ,  9-C ) :   1.4932 B(  7-C , 15-C ) :   1.1693 B(  8-C , 16-C ) :   1.4901
B(  8-C , 17-C ) :   1.1762 B(  9-C , 18-C ) :   1.1712 B( 10-C , 16-C ) :   1.1778
B( 10-C , 19-C ) :   1.1787 B( 11-C , 20-C ) :   1.4890 B( 12-C , 14-C ) :   1.1711
B( 12-C , 21-C ) :   1.1774 B( 13-C , 15-C ) :   1.1803 B( 13-C , 22-C ) :   1.5193
B( 14-C , 23-C ) :   1.2031 B( 15-C , 24-C ) :   1.4897 B( 16-C , 25-C ) :   1.1768
B( 17-C , 18-C ) :   1.1833 B( 17-C , 26-C ) :   1.4856 B( 18-C , 27-C ) :   1.4904
B( 19-C , 28-C ) :   1.1782 B( 19-C , 29-C ) :   1.4868 B( 20-C , 29-C ) :   1.1783
B( 20-C , 30-C ) :   1.1779 B( 21-C , 30-C ) :   1.4943 B( 21-C , 31-C ) :   1.1899
B( 22-C , 32-C ) :   1.1407 B( 22-C , 33-C ) :   1.1604 B( 23-C , 31-C ) :   1.1315
B( 23-C , 32-C ) :   1.5561 B( 24-C , 27-C ) :   1.1718 B( 24-C , 34-C ) :   1.1866
B( 25-C , 28-C ) :   1.1782 B( 25-C , 35-C ) :   1.4895 B( 26-C , 35-C ) :   1.1758
B( 26-C , 36-C ) :   1.1832 B( 27-C , 37-C ) :   1.1810 B( 28-C , 38-C ) :   1.4888
B( 29-C , 39-C ) :   1.1774 B( 30-C , 40-C ) :   1.1747 B( 31-C , 41-C ) :   1.5061
B( 32-C , 42-C ) :   0.1044 B( 32-C , 68-C ) :   0.9439 B( 33-C , 34-C ) :   1.5056
B( 33-C , 43-C ) :   1.1496 B( 34-C , 44-C ) :   1.1834 B( 35-C , 45-C ) :   1.1794
B( 36-C , 37-C ) :   1.4883 B( 36-C , 46-C ) :   1.1735 B( 37-C , 44-C ) :   1.1740
B( 38-C , 47-C ) :   1.1779 B( 38-C , 48-C ) :   1.1783 B( 39-C , 40-C ) :   1.1805
B( 39-C , 48-C ) :   1.4875 B( 40-C , 49-C ) :   1.4969 B( 41-C , 49-C ) :   1.1844
B( 41-C , 50-C ) :   1.1386 B( 42-C , 43-C ) :   1.1536 B( 42-C , 50-C ) :   1.5326
B( 42-C , 68-C ) :   0.9490 B( 43-C , 51-C ) :   1.5254 B( 44-C , 52-C ) :   1.4948
B( 45-C , 46-C ) :   1.1790 B( 45-C , 47-C ) :   1.4852 B( 46-C , 53-C ) :   1.4923
B( 47-C , 54-C ) :   1.1807 B( 48-C , 55-C ) :   1.1802 B( 49-C , 56-C ) :   1.1809
B( 50-C , 57-C ) :   1.1981 B( 51-C , 52-C ) :   1.1736 B( 51-C , 58-C ) :   1.1840
B( 52-C , 53-C ) :   1.1703 B( 53-C , 59-C ) :   1.1781 B( 54-C , 55-C ) :   1.1823
B( 54-C , 59-C ) :   1.4839 B( 55-C , 56-C ) :   1.4842 B( 56-C , 57-C ) :   1.1760
B( 57-C , 58-C ) :   1.4841 B( 58-C , 59-C ) :   1.1872 B( 60-H , 61-C ) :   0.9792
B( 61-C , 62-H ) :   0.9816 B( 61-C , 64-C ) :   1.0535 B( 61-C , 66-H ) :   0.9818
B( 63-H , 64-C ) :   0.9815 B( 64-C , 65-O ) :   0.7707 B( 64-C , 70-H ) :   0.9775
B( 65-O , 67-C ) :   1.1318 B( 67-C , 68-C ) :   0.9225 B( 67-C , 69-O ) :   2.0367
B( 68-C , 71-C ) :   0.9376 B( 71-C , 73-O ) :   1.1254 B( 71-C , 75-O ) :   2.0414
B( 72-H , 77-C ) :   0.9816 B( 73-O , 76-C ) :   0.7809 B( 74-H , 76-C ) :   0.9822
B( 76-C , 77-C ) :   1.0457 B( 76-C , 80-H ) :   0.9823 B( 77-C , 78-H ) :   0.9801
B( 77-C , 79-H ) :   0.9817

MP2 TOTAL ENERGY:    -2849.452955469 Eh
FINAL SINGLE POINT ENERGY     -2849.452955469425

DIPOLE MOMENT
-------------

Method             : SCF
Type of density    : Electron Density
Multiplicity       :   1
Irrep              :   0
Energy             : -2839.9862753554243682 Eh
Relativity type    :
Basis              : AO
                                X                 Y                 Z
Electronic contribution:     11.187517154     -57.787023782      -6.971916092
Nuclear contribution   :    -11.394971416      59.199487493       7.125078701
                        -----------------------------------------
Total Dipole Moment    :     -0.207454262       1.412463711       0.153162609
                        -----------------------------------------
Magnitude (a.u.)       :      1.435809803
Magnitude (Debye)      :      3.649538485

Rotational constants in cm-1:             0.002415             0.001417             0.001351
Rotational constants in MHz :            72.393265            42.480838            40.503316

                             ****ORCA TERMINATED NORMALLY****
TOTAL RUN TIME: 0 days 0 hours 20 minutes 48 seconds 674 msec
