                         Program Version 6.0.1  -  RELEASE   -
|  1> ! B3LYP def2-SVP SP TightSCF ALLPOP KEEPDENS
|  2>
|  3> %maxcore 5000
|  4>
|  5> %pal
|  6> nprocs 20
|  7> end
|  8>
|  9> * xyz 0 1
| 10>   N          -2.34225861828406      3.25633118922103      0.48030657776990
| 11>   C          -0.97006033523436      3.28480781542691      0.28425153578390
| 12>   C          -0.32786487541871      4.48985140004220     -0.08042737142917
| 13>   C          -0.16742757740573      2.14191514716733      0.47601086725168
| 14>   C           1.05340982658337      4.53412490416460     -0.27042369633731
| 15>   C           1.21430109512712      2.20072293125570      0.29616346213624
| 16>   C           1.83889689649123      3.39191208539290     -0.08707773444909
| 17>   H          -0.92315419199700      5.40315206119891     -0.16939551012337
| 18>   H          -0.64130276493969      1.19918718066707      0.76542540848805
| 19>   H           1.52323483647789      5.48063927624105     -0.55195329771701
| 20>   H           1.81079877927445      1.29746949155852      0.45135237543012
| 21>   H           2.92046699777461      3.43112265530320     -0.23235388624904
| 22>   H          -2.74642869912198      2.32885984986825      0.55403200840895
| 23>   H          -2.86281827250510      3.85787838482350     -0.15820897266294
| 24>   O          -2.81677067007110      4.56649667423272     -2.16511469717438
| 25>   H          -2.70709866033913      3.67431382517214     -2.52434618322518
| 26>   H          -1.90091376641180      4.85956512826374     -2.04055088590137
| 27> *
| 28>
| 29>                          ****END OF INPUT****

CARTESIAN COORDINATES (ANGSTROEM)
---------------------------------
  N     -2.342259    3.256331    0.480307
  C     -0.970060    3.284808    0.284252
  C     -0.327865    4.489851   -0.080427
  C     -0.167428    2.141915    0.476011
  C      1.053410    4.534125   -0.270424
  C      1.214301    2.200723    0.296163
  C      1.838897    3.391912   -0.087078
  H     -0.923154    5.403152   -0.169396
  H     -0.641303    1.199187    0.765425
  H      1.523235    5.480639   -0.551953
  H      1.810799    1.297469    0.451352
  H      2.920467    3.431123   -0.232354
  H     -2.746429    2.328860    0.554032
  H     -2.862818    3.857878   -0.158209
  O     -2.816771    4.566497   -2.165115
  H     -2.707099    3.674314   -2.524346
  H     -1.900914    4.859565   -2.040551

 Total Charge           Charge          ....    0
 Multiplicity           Mult            ....    1
 Number of Electrons    NEL             ....   60
 Basis Dimension        Dim             ....  157

ORBITAL ENERGIES
----------------

  NO   OCC          E(Eh)            E(eV)
   0   2.0000     -19.140751      -520.8463
   1   2.0000     -14.321603      -389.7106
   2   2.0000     -10.222915      -278.1796
   3   2.0000     -10.185583      -277.1638
   4   2.0000     -10.184807      -277.1427
   5   2.0000     -10.179109      -276.9876
   6   2.0000     -10.178466      -276.9702
   7   2.0000     -10.174031      -276.8495
   8   2.0000      -0.998696       -27.1759
   9   2.0000      -0.902391       -24.5553
  10   2.0000      -0.822427       -22.3794
  11   2.0000      -0.731488       -19.9048
  12   2.0000      -0.710538       -19.3347
  13   2.0000      -0.602059       -16.3829
  14   2.0000      -0.586864       -15.9694
  15   2.0000      -0.528884       -14.3917
  16   2.0000      -0.516472       -14.0539
  17   2.0000      -0.499479       -13.5915
  18   2.0000      -0.469457       -12.7746
  19   2.0000      -0.427930       -11.6446
  20   2.0000      -0.423944       -11.5361
  21   2.0000      -0.414077       -11.2676
  22   2.0000      -0.392136       -10.6706
  23   2.0000      -0.375647       -10.2219
  24   2.0000      -0.355949        -9.6859
  25   2.0000      -0.338689        -9.2162
  26   2.0000      -0.315354        -8.5812
  27   2.0000      -0.302779        -8.2390
  28   2.0000      -0.250564        -6.8182
  29   2.0000      -0.202196        -5.5020
  30   0.0000      -0.006261        -0.1704
  31   0.0000       0.012865         0.3501
  32   0.0000       0.042260         1.1499
  33   0.0000       0.069225         1.8837
  34   0.0000       0.077000         2.0953

MULLIKEN ATOMIC CHARGES
-----------------------
   0 N :   -0.080261
   1 C :    0.037321
   2 C :   -0.073124
   3 C :   -0.026134
   4 C :    0.017444
   5 C :    0.017026
   6 C :    0.010461
   7 H :   -0.027114
   8 H :   -0.048177
   9 H :   -0.021053
  10 H :   -0.021138
  11 H :   -0.026170
  12 H :    0.095998
  13 H :    0.094973
  14 O :   -0.269516
  15 H :    0.161540
  16 H :    0.157923
Sum of atomic charges:   -0.0000000

LOEWDIN ATOMIC CHARGES
----------------------
   0 N :   -0.037283
   1 C :    0.020333
   2 C :   -0.083271
   3 C :   -0.072412
   4 C :   -0.018731
   5 C :   -0.014931
   6 C :   -0.063991
   7 H :    0.021138
   8 H :    0.019339
   9 H :    0.025625
  10 H :    0.025842
  11 H :    0.022733
  12 H :    0.065358
  13 H :    0.051042
  14 O :   -0.116538
  15 H :    0.081935
  16 H :    0.073813

  Mayer bond orders larger than 0.100000
B(  0-N ,  1-C ) :   1.2183 B(  0-N , 12-H ) :   0.9511 B(  0-N , 13-H ) :   0.9196
B(  1-C ,  2-C ) :   1.3240 B(  1-C ,  3-C ) :   1.3355 B(  2-C ,  4-C ) :   1.3899
B(  2-C ,  7-H ) :   0.9769 B(  3-C ,  5-C ) :   1.3947 B(  3-C ,  8-H ) :   0.9840
B(  4-C ,  6-C ) :   1.3740 B(  4-C ,  9-H ) :   0.9800 B(  5-C ,  6-C ) :   1.3724
B(  5-C , 10-H ) :   0.9786 B(  6-C , 11-H ) :   0.9881 B( 13-H , 14-O ) :   0.1240
B( 14-O , 15-H ) :   0.9944 B( 14-O , 16-H ) :   0.9857

FINAL SINGLE POINT ENERGY      -363.549937281056

DIPOLE MOMENT
-------------

Method             : SCF
Type of density    : Electron Density
Multiplicity       :   1
Irrep              :   0
Energy             :  -363.5499372810558043 Eh
Relativity type    :
Basis              : AO
                                X                 Y                 Z
Electronic contribution:      1.275230182      -0.430055375       1.349715450
Nuclear contribution   :     -1.301392058      -0.122277823      -1.834212171
                        -----------------------------------------
Total Dipole Moment    :     -0.026161876      -0.552333198      -0.484496722
                        -----------------------------------------
Magnitude (a.u.)       :      0.735182616
Magnitude (Debye)      :      1.868685702

Rotational constants in cm-1:             0.106979             0.044305             0.035649
Rotational constants in MHz :          3207.138424          1328.220463          1068.736476

                             ****ORCA TERMINATED NORMALLY****
TOTAL RUN TIME: 0 days 0 hours 0 minutes 8 seconds 199 msec
